chemcompute.org
{'UTCtimestamp': '2022-10-30T19:37:42.904259', 'cluster': 'jetstream2', 'clusterJobNumber': '141343', 'status': 'RUNNING', 'nodeList': 'chemcompute-node-0'}
----- GAMESS execution script 'rungms' -----
This job is running on host chemcompute-node-0.novalocal
under operating system Linux at Sun Oct 30 19:37:46 UTC 2022
SLURM has assigned the following compute nodes to this run:
Available scratch disk space (Kbyte units) at beginning of the job is
Filesystem     1K-blocks     Used Available Use% Mounted on
/dev/sda1       62903276 11702448  51200828  19% /
GAMESS temporary binary files will be written to /scratch/141343
GAMESS supplementary output files will be written to /data/slurm/48/483393
Copying input file 483393.inp to your run's scratch directory...
The generated host list is
chemcompute-node-0.novalocal

 Distributed Data Interface kickoff program.
 Initiating 1 compute processes on 1 nodes to run the following command:
 /data/gamess-2019R1-avx2-ddi/gamess.00.x 483393 

          ******************************************************
          *         GAMESS VERSION = 30 JUN 2019 (R1)          *
          *             FROM IOWA STATE UNIVERSITY             *
          * M.W.SCHMIDT, K.K.BALDRIDGE, J.A.BOATZ, S.T.ELBERT, *
          *   M.S.GORDON, J.H.JENSEN, S.KOSEKI, N.MATSUNAGA,   *
          *          K.A.NGUYEN, S.J.SU, T.L.WINDUS,           *
          *       TOGETHER WITH M.DUPUIS, J.A.MONTGOMERY       *
          *         J.COMPUT.CHEM.  14, 1347-1363(1993)        *
          **************** 64 BIT INTEL VERSION ****************

  SINCE 1993, STUDENTS AND POSTDOCS WORKING AT IOWA STATE UNIVERSITY
  AND ALSO IN THEIR VARIOUS JOBS AFTER LEAVING ISU HAVE MADE IMPORTANT
  CONTRIBUTIONS TO THE CODE:
     IVANA ADAMOVIC, CHRISTINE AIKENS, YURI ALEXEEV, POOJA ARORA,
     ANDREY ASADCHEV, ROB BELL, PRADIPTA BANDYOPADHYAY, JONATHAN BENTZ,
     COLLEEN BERTONI, BRETT BODE, KURT BRORSEN, CALEB CARLIN, GALINA CHABAN,
     WEI CHEN, CHEOL HO CHOI, PAUL DAY, ALBERT DEFUSCO, NUWAN DESILVA,
     TIM DUDLEY, DMITRI FEDOROV, ALEX FINDLATER, GRAHAM FLETCHER, 
     MARK FREITAG, KURT GLAESEMANN, ANASTASIA GUNINA,
     DAN KEMP, GRANT MERRILL, NORIYUKI MINEZAWA, JONATHAN MULLIN,
     TAKESHI NAGATA, SEAN NEDD, HEATHER NETZLOFF, BOSILJKA NJEGIC, RYAN OLSON,
     MIKE PAK, BUU PHAM,
     SPENCER PRUITT, LUKE ROSKOP, JIM SHOEMAKER, LYUDMILA SLIPCHENKO,
     TONY SMITH, SAROM SOK LEANG, JIE SONG, TETSUYA TAKETSUGU, SIMON WEBB,
     PENG XU, SOOHAENG YOO, FEDERICO ZAHARIEV

  ADDITIONAL CODE HAS BEEN PROVIDED BY COLLABORATORS IN OTHER GROUPS:
     IOWA STATE UNIVERSITY:
          JOE IVANIC, AARON WEST, LAIMUTIS BYTAUTAS, KLAUS RUEDENBERG
     UNIVERSITY OF TOKYO: KIMIHIKO HIRAO, TAKAHITO NAKAJIMA,
          TAKAO TSUNEDA, MUNEAKI KAMIYA, SUSUMU YANAGISAWA,
          KIYOSHI YAGI, MAHITO CHIBA, SEIKEN TOKURA, NAOAKI KAWAKAMI
     UNIVERSITY OF AARHUS: FRANK JENSEN
     UNIVERSITY OF IOWA: VISVALDAS KAIRYS, HUI LI
     NATIONAL INST. OF STANDARDS AND TECHNOLOGY: WALT STEVENS, DAVID GARMER
     UNIVERSITY OF PISA: BENEDETTA MENNUCCI, JACOPO TOMASI
     UNIVERSITY OF MEMPHIS: HENRY KURTZ, PRAKASHAN KORAMBATH
     UNIVERSITY OF ALBERTA: TOBY ZENG, MARIUSZ KLOBUKOWSKI
     UNIVERSITY OF NEW ENGLAND: MARK SPACKMAN
     MIE UNIVERSITY: HIROAKI UMEDA
     NAT. INST. OF ADVANCED INDUSTRIAL SCIENCE AND TECHNOLOGY: KAZUO KITAURA
     MICHIGAN STATE UNIVERSITY:
          KAROL KOWALSKI, MARTA WLOCH, JEFFREY GOUR, JESSE LUTZ,
          WEI LI, JUN SHEN, J. EMILIANO DEUSTUA, PIOTR PIECUCH
     UNIVERSITY OF MINNESOTA:
          YINAN SHU
     UNIVERSITY OF SILESIA: MONIKA MUSIAL, STANISLAW KUCHARSKI
     FACULTES UNIVERSITAIRES NOTRE-DAME DE LA PAIX:
          OLIVIER QUINET, BENOIT CHAMPAGNE
     UNIVERSITY OF CALIFORNIA - SANTA BARBARA: BERNARD KIRTMAN
     INSTITUTE FOR MOLECULAR SCIENCE:
          KAZUYA ISHIMURA, MICHIO KATOUDA, AND SHIGERU NAGASE
     UNIVERSITY OF NOTRE DAME: ANNA POMOGAEVA, DAN CHIPMAN
     KYUSHU UNIVERSITY:
          HARUYUKI NAKANO,
          FENG LONG GU, JACEK KORCHOWIEC, MARCIN MAKOWSKI, AND YURIKO AOKI,
          HIROTOSHI MORI AND EISAKU MIYOSHI
     PENNSYLVANIA STATE UNIVERSITY:
          TZVETELIN IORDANOV, CHET SWALINA, JONATHAN SKONE,
          SHARON HAMMES-SCHIFFER
     WASEDA UNIVERSITY:
          MASATO KOBAYASHI, TOMOKO AKAMA, TSUGUKI TOUMA,
          TAKESHI YOSHIKAWA, YASUHIRO IKABATA, JUNJI SEINO,
          YUYA NAKAJIMA, HIROMI NAKAI
     NANJING UNIVERSITY: SHUHUA LI
     UNIVERSITY OF NEBRASKA:
          PEIFENG SU, DEJUN SI, NANDUN THELLAMUREGE, YALI WANG, HUI LI
     UNIVERSITY OF ZURICH: ROBERTO PEVERATI, KIM BALDRIDGE
     N. COPERNICUS UNIVERSITY AND JACKSON STATE UNIVERSITY:
          MARIA BARYSZ
     UNIVERSITY OF COPENHAGEN: Jimmy Kromann, CASPER STEINMANN
     TOKYO INSTITUTE OF TECHNOLOGY: HIROYA NAKATA
     NAGOYA UNIVERSITY: YOSHIO NISHIMOTO, STEPHAN IRLE
     MOSCOW STATE UNIVERSITY: VLADIMIR MIRONOV
     A.N.NESMEYANOV INSTITUTE OF ORGANOELEMENT COMPOUNDS OF RUSSIAN ACADEMY OF SCIENCES:
          IGOR S. GERASIMOV

 EXECUTION OF GAMESS BEGUN Sun Oct 30 19:37:46 2022

            ECHO OF THE FIRST FEW INPUT CARDS -
 INPUT CARD>!                                                                               
 INPUT CARD>!   GAMESS Calculation input file                                               
 INPUT CARD>!                                                                               
 INPUT CARD>!                                                                               
 INPUT CARD> $CONTRL SCFTYP=RHF MAXIT=200 RUNTYP=OPTIMIZE                                   
 INPUT CARD>         COORD=UNIQUE MULT=1                                                    
 INPUT CARD>         ICHARG=0                                                               
 INPUT CARD>         DFTTYP=B3LYP                                                           
 INPUT CARD>         MOLPLT=.FALSE. PLTORB=.FALSE.  $END                                    
 INPUT CARD> $SYSTEM TIMLIM=2879 MWORDS=250  $END                                           
 INPUT CARD>                                                                                
 INPUT CARD> $FORCE METHOD=SEMINUM NVIB=2 $END                                              
 INPUT CARD> $STATPT OPTTOL=0.0005 NSTEP=999 $END                                           
 INPUT CARD> $STATPT IHREP=0 HSSEND=.TRUE.  $END                                            
 INPUT CARD>                                                                                
 INPUT CARD> $DFT    METHOD=GRID  NLEB=590  $END                                            
 INPUT CARD>                                                                                
 INPUT CARD> $BASIS  GBASIS=N21 NGAUSS=3 $END                                               
 INPUT CARD>                                                                                
 INPUT CARD> $SCF    DIRSCF=.T. $END                                                        
 INPUT CARD> $GUESS  GUESS=HUCKEL  $END                                                     
 INPUT CARD>                                                                                
 INPUT CARD> $DATA                                                                          
 INPUT CARD>                                                                                
 INPUT CARD>  Cs                                                                            
 INPUT CARD>                                                                                
 INPUT CARD>C     6.0     0.83     0.94    -0.00                                            
 INPUT CARD>C     6.0    -0.45     0.17     0.00                                            
 INPUT CARD>C     6.0    -0.48    -1.17     0.00                                            
 INPUT CARD>H     1.0     1.42     0.71    -0.89                                            
 INPUT CARD>H     1.0     0.63     2.01    -0.00                                            
 INPUT CARD>H     1.0    -1.38     0.73     0.00                                            
 INPUT CARD>H     1.0     0.43    -1.76    -0.00                                            
 INPUT CARD>H     1.0    -1.42    -1.71     0.00                                            
 INPUT CARD> $END                                                                           
 INPUT CARD>                                                                                
 INPUT CARD>                                                                                
 INPUT CARD>! Customizations after this line are persisted when using Do More Calculations  
  250000000 WORDS OF MEMORY AVAILABLE

     BASIS OPTIONS
     -------------
     GBASIS=N21          IGAUSS=       3      POLAR=NONE    
     NDFUNC=       0     NFFUNC=       0     DIFFSP=       F
     NPFUNC=       0      DIFFS=       F     BASNAM=        


     RUN TITLE
     ---------
                                                                                 

 THE POINT GROUP OF THE MOLECULE IS CS      
 THE ORDER OF THE PRINCIPAL AXIS IS     0

 ATOM      ATOMIC                      COORDINATES (BOHR)
           CHARGE         X                   Y                   Z
 C           6.0     1.5684725698        1.7763424285        0.0000000000
 C           6.0    -0.8503766945        0.3212534179        0.0000000000
 C           6.0    -0.9070684741       -2.2109794056        0.0000000000
 H           1.0     2.6834109026        1.3417054513        1.6818561291
 H           1.0     2.6834109026        1.3417054513       -1.6818561291
 H           1.0     1.1905273723        3.7983492353        0.0000000000
 H           1.0    -2.6078218631        1.3794999710        0.0000000000
 H           1.0     0.8125821747       -3.3259177384        0.0000000000
 H           1.0    -2.6834109026       -3.2314314390        0.0000000000

          INTERNUCLEAR DISTANCES (ANGS.)
          ------------------------------

                1 C          2 C          3 C          4 H          5 H     

   1 C       0.0000000    1.4937537 *  2.4835861 *  1.0922912 *  1.0922912 *
   2 C       1.4937537 *  0.0000000    1.3403358 *  2.1402336 *  2.1402336 *
   3 C       2.4835861 *  1.3403358 *  0.0000000    2.8171794 *  2.8171794 *
   4 H       1.0922912 *  2.1402336 *  2.8171794 *  0.0000000    1.7800000 *
   5 H       1.0922912 *  2.1402336 *  2.8171794 *  1.7800000 *  0.0000000  
   6 H       1.0885311 *  2.1335417 *  3.3681597    1.7624415 *  1.7624415 *
   7 H       2.2199550 *  1.0855874 *  2.1023796 *  2.9381116 *  2.9381116 *
   8 H       2.7294688 *  2.1211553 *  1.0845275 *  2.8059045 *  2.8059045 *
   9 H       3.4763487    2.1154905 *  1.0840664 *  3.8358962    3.8358962  

                6 H          7 H          8 H          9 H     

   1 C       1.0885311 *  2.2199550 *  2.7294688 *  3.4763487  
   2 C       2.1335417 *  1.0855874 *  2.1211553 *  2.1154905 *
   3 C       3.3681597    2.1023796 *  1.0845275 *  1.0840664 *
   4 H       1.7624415 *  2.9381116 *  2.8059045 *  3.8358962  
   5 H       1.7624415 *  2.9381116 *  2.8059045 *  3.8358962  
   6 H       0.0000000    2.3829603 *  3.7753013    4.2474581  
   7 H       2.3829603 *  0.0000000    3.0783437    2.4403278 *
   8 H       3.7753013    3.0783437    0.0000000    1.8506756 *
   9 H       4.2474581    2.4403278 *  1.8506756 *  0.0000000  

  * ... LESS THAN  3.000


     ATOMIC BASIS SET
     ----------------
 THE CONTRACTED PRIMITIVE FUNCTIONS HAVE BEEN UNNORMALIZED
 THE CONTRACTED BASIS FUNCTIONS ARE NOW NORMALIZED TO UNITY

  SHELL TYPE  PRIMITIVE        EXPONENT          CONTRACTION COEFFICIENT(S)

 C         

      1   S       1           172.2560000    0.061766907377
      1   S       2            25.9109000    0.358794042852
      1   S       3             5.5333500    0.700713083689

      2   L       4             3.6649800   -0.395895162119    0.236459946619
      2   L       5             0.7705450    1.215834355681    0.860618805716

      3   L       6             0.1958570    1.000000000000    1.000000000000

 C         

      4   S       7           172.2560000    0.061766907377
      4   S       8            25.9109000    0.358794042852
      4   S       9             5.5333500    0.700713083689

      5   L      10             3.6649800   -0.395895162119    0.236459946619
      5   L      11             0.7705450    1.215834355681    0.860618805716

      6   L      12             0.1958570    1.000000000000    1.000000000000

 C         

      7   S      13           172.2560000    0.061766907377
      7   S      14            25.9109000    0.358794042852
      7   S      15             5.5333500    0.700713083689

      8   L      16             3.6649800   -0.395895162119    0.236459946619
      8   L      17             0.7705450    1.215834355681    0.860618805716

      9   L      18             0.1958570    1.000000000000    1.000000000000

 H         

     12   S      19             5.4471780    0.156284978695
     12   S      20             0.8245472    0.904690876670

     13   S      21             0.1831916    1.000000000000

 H         

     14   S      22             5.4471780    0.156284978695
     14   S      23             0.8245472    0.904690876670

     15   S      24             0.1831916    1.000000000000

 H         

     16   S      25             5.4471780    0.156284978695
     16   S      26             0.8245472    0.904690876670

     17   S      27             0.1831916    1.000000000000

 H         

     18   S      28             5.4471780    0.156284978695
     18   S      29             0.8245472    0.904690876670

     19   S      30             0.1831916    1.000000000000

 H         

     20   S      31             5.4471780    0.156284978695
     20   S      32             0.8245472    0.904690876670

     21   S      33             0.1831916    1.000000000000

 TOTAL NUMBER OF BASIS SET SHELLS             =   21
 NUMBER OF CARTESIAN GAUSSIAN BASIS FUNCTIONS =   39
 NUMBER OF ELECTRONS                          =   24
 CHARGE OF MOLECULE                           =    0
 SPIN MULTIPLICITY                            =    1
 NUMBER OF OCCUPIED ORBITALS (ALPHA)          =   12
 NUMBER OF OCCUPIED ORBITALS (BETA )          =   12
 TOTAL NUMBER OF ATOMS                        =    9
 THE NUCLEAR REPULSION ENERGY IS       70.8879405059

 SELECTED MURRAY-HANDY-LAMING RADIAL GRID

 LEGACY BECKE'S FUZZY CELL METHOD

 SELECTED ORIGINAL BECKE'S PARTITION FUNCTION

     LEBEDEV GRID-BASED DFT OPTIONS
     ------------------------------
     DFTTYP=B3LYP   
     NRAD  =      96     NLEB  =     590
     NRAD0 =      24     NLEB0 =     110
     SWOFF =    5.00E-03 (PURE SCF -> DFT)
     SWITCH=    3.00E-04 (COARSE -> TIGHT GRID)
     THRESH=    0.00E+00 GTHRE=    1.00E+00

 GRIMME'S EMPIRICAL DISPERSION CORRECTION= F

     $CONTRL OPTIONS
     ---------------
 SCFTYP=RHF          RUNTYP=OPTIMIZE     EXETYP=RUN     
 MPLEVL=       0     CITYP =NONE         CCTYP =NONE         VBTYP =NONE    
 DFTTYP=B3LYP        TDDFT =NONE    
 MULT  =       1     ICHARG=       0     NZVAR =       0     COORD =UNIQUE  
 PP    =NONE         RELWFN=NONE         LOCAL =NONE         NUMGRD=       F
 ISPHER=      -1     NOSYM =       0     MAXIT =     200     UNITS =ANGS    
 PLTORB=       F     MOLPLT=       F     AIMPAC=       F     FRIEND=        
 NPRINT=       7     IREST =       0     GEOM  =INPUT   
 NORMF =       0     NORMP =       0     ITOL  =      20     ICUT  =       9
 INTTYP=BEST         GRDTYP=BEST         QMTTOL= 1.0E-06

     $SYSTEM OPTIONS
     ---------------
  REPLICATED MEMORY=   250000000 WORDS (ON EVERY NODE).
 DISTRIBUTED MEMDDI=           0 MILLION WORDS IN AGGREGATE,
 MEMDDI DISTRIBUTED OVER   1 PROCESSORS IS           0 WORDS/PROCESSOR.
 TOTAL MEMORY REQUESTED ON EACH PROCESSOR=   250000000 WORDS.
 TIMLIM=        2879.00 MINUTES, OR       2.0 DAYS.
 PARALL= F  BALTYP=  DLB     KDIAG=    0  COREFL= F
 MXSEQ2=     300 MXSEQ3=     150  mem10=         0

          ----------------
          PROPERTIES INPUT
          ----------------

     MOMENTS            FIELD           POTENTIAL          DENSITY
 IEMOM =       1   IEFLD =       0   IEPOT =       0   IEDEN =       0
 WHERE =COMASS     WHERE =NUCLEI     WHERE =NUCLEI     WHERE =NUCLEI  
 OUTPUT=BOTH       OUTPUT=BOTH       OUTPUT=BOTH       OUTPUT=BOTH    
 IEMINT=       0   IEFINT=       0                     IEDINT=       0
                                                       MORB  =       0
          EXTRAPOLATION IN EFFECT
          DIIS IN EFFECT
 ORBITAL PRINTING OPTION: NPREO=     1    39     2     1

     -------------------------------
     INTEGRAL TRANSFORMATION OPTIONS
     -------------------------------
     NWORD  =            0
     CUTOFF = 1.0E-09     MPTRAN =       0
     DIRTRF =       T     AOINTS =DUP     

          ----------------------
          INTEGRAL INPUT OPTIONS
          ----------------------
 NOPK  =       1 NORDER=       0 SCHWRZ=       T

     ------------------------------------------
     THE POINT GROUP IS CS , NAXIS= 0, ORDER= 2
     ------------------------------------------

     DIMENSIONS OF THE SYMMETRY SUBSPACES ARE
 A'  =   31     A'' =    8

 ..... DONE SETTING UP THE RUN .....
 STEP CPU TIME =     0.01 TOTAL CPU TIME =          0.0 (      0.0 MIN)
 TOTAL WALL CLOCK TIME=          0.0 SECONDS, CPU UTILIZATION IS    50.00%


          -----------------------------
          STATIONARY POINT LOCATION RUN
          -----------------------------

 OBTAINING INITIAL HESSIAN, HESS=GUESS   
 CARTESIAN COORDINATE OPTIMIZATION USING BADGER'S RULE FORCE CONSTANT GUESS

          PARAMETERS CONTROLLING GEOMETRY SEARCH ARE
          METHOD =QA                  UPHESS =BFGS    
          NNEG   =         0          NFRZ   =         0
          NSTEP  =       999          IFOLOW =         1
          HESS   =GUESS               RESTAR =         F
          IHREP  =         0          HSSEND =         T
          NPRT   =         0          NPUN   =         0
          OPTTOL = 5.000E-04          RMIN   = 1.500E-03
          RMAX   = 1.000E-01          RLIM   = 7.000E-02
          DXMAX  = 3.000E-01          PURIFY =         F
          MOVIE  =         F          TRUPD  =         T
          TRMAX  = 5.000E-01          TRMIN  = 5.000E-02
          ITBMAT =         5          STPT   =         F
          STSTEP = 1.000E-02          PROJCT=          T

 BEGINNING GEOMETRY SEARCH POINT NSERCH=   0 ...

 COORDINATES OF SYMMETRY UNIQUE ATOMS (ANGS)
   ATOM   CHARGE       X              Y              Z
 ------------------------------------------------------------
 C           6.0   0.8300000000   0.9400000000   0.0000000000
 C           6.0  -0.4500000000   0.1700000000   0.0000000000
 C           6.0  -0.4800000000  -1.1700000000   0.0000000000
 H           1.0   1.4200000000   0.7100000000  -0.8900000000
 H           1.0   0.6300000000   2.0100000000   0.0000000000
 H           1.0  -1.3800000000   0.7300000000   0.0000000000
 H           1.0   0.4300000000  -1.7600000000   0.0000000000
 H           1.0  -1.4200000000  -1.7100000000   0.0000000000
 COORDINATES OF ALL ATOMS ARE (ANGS)
   ATOM   CHARGE       X              Y              Z
 ------------------------------------------------------------
 C           6.0   0.8300000000   0.9400000000   0.0000000000
 C           6.0  -0.4500000000   0.1700000000   0.0000000000
 C           6.0  -0.4800000000  -1.1700000000   0.0000000000
 H           1.0   1.4200000000   0.7100000000   0.8900000000
 H           1.0   1.4200000000   0.7100000000  -0.8900000000
 H           1.0   0.6300000000   2.0100000000   0.0000000000
 H           1.0  -1.3800000000   0.7300000000   0.0000000000
 H           1.0   0.4300000000  -1.7600000000   0.0000000000
 H           1.0  -1.4200000000  -1.7100000000   0.0000000000

          ********************
          1 ELECTRON INTEGRALS
          ********************
 ...... END OF ONE-ELECTRON INTEGRALS ......
 STEP CPU TIME =     0.00 TOTAL CPU TIME =          0.0 (      0.0 MIN)
 TOTAL WALL CLOCK TIME=          0.0 SECONDS, CPU UTILIZATION IS    25.00%

          -------------
          GUESS OPTIONS
          -------------
          GUESS =HUCKEL            NORB  =       0          NORDER=       0
          MIX   =       F          PRTMO =       F          PUNMO =       F
          TOLZ  = 1.0E-08          TOLE  = 1.0E-05
          SYMDEN=       F          PURIFY=       F

 INITIAL GUESS ORBITALS GENERATED BY HUCKEL   ROUTINE.
 HUCKEL GUESS REQUIRES     19284 WORDS.

 SYMMETRIES FOR INITIAL GUESS ORBITALS FOLLOW.   BOTH SET(S).
    12 ORBITALS ARE OCCUPIED (    3 CORE ORBITALS).
     4=A'       5=A'       6=A'       7=A'       8=A''      9=A'      10=A'  
    11=A'      12=A''     13=A''     14=A'      15=A'      16=A''     17=A'  
    18=A'      19=A'      20=A'      21=A'      22=A'  
 ...... END OF INITIAL ORBITAL SELECTION ......
 STEP CPU TIME =     0.02 TOTAL CPU TIME =          0.0 (      0.0 MIN)
 TOTAL WALL CLOCK TIME=          0.0 SECONDS, CPU UTILIZATION IS    60.00%

                    ----------------------
                    AO INTEGRAL TECHNOLOGY
                    ----------------------
     S,P,L SHELL ROTATED AXIS INTEGRALS, REPROGRAMMED BY
        KAZUYA ISHIMURA (IMS) AND JOSE SIERRA (SYNSTAR).
     S,P,D,L SHELL ROTATED AXIS INTEGRALS PROGRAMMED BY
        KAZUYA ISHIMURA (INSTITUTE FOR MOLECULAR SCIENCE).
     S,P,D,F,G SHELL TO TOTAL QUARTET ANGULAR MOMENTUM SUM 5,
        ERIC PROGRAM BY GRAHAM FLETCHER (ELORET AND NASA ADVANCED
        SUPERCOMPUTING DIVISION, AMES RESEARCH CENTER).
     S,P,D,F,G,L SHELL GENERAL RYS QUADRATURE PROGRAMMED BY
        MICHEL DUPUIS (PACIFIC NORTHWEST NATIONAL LABORATORY).

          --------------------
          2 ELECTRON INTEGRALS
          --------------------

 DIRECT SCF METHOD SKIPS INTEGRAL STORAGE ON DISK.
 DIRECT TRANSFORMATION SKIPS AO INTEGRAL STORAGE ON DISK.
  ...... END OF TWO-ELECTRON INTEGRALS .....
 STEP CPU TIME =     0.00 TOTAL CPU TIME =          0.0 (      0.0 MIN)
 TOTAL WALL CLOCK TIME=          0.1 SECONDS, CPU UTILIZATION IS    50.00%

          --------------------------
             R-B3LYP SCF CALCULATION
          --------------------------

     NUCLEAR ENERGY =        70.8879405059
     MAXIT =  200     NPUNCH=    2
     EXTRAP=T  DAMP=F  SHIFT=F  RSTRCT=F  DIIS=T  DEM=F  SOSCF=F
         DENSITY MATRIX CONVERGENCE THRESHOLD=  2.00E-05
     COARSE -> FINE DFT GRID SWITCH THRESHOLD=  3.00E-04 (SWITCH IN $DFT)
                   HF -> DFT SWITCH THRESHOLD=  5.00E-03 (SWOFF IN $DFT)
     MEMORY REQUIRED FOR RHF ITERS=    654047 WORDS.

 DIRECT SCF CALCULATION, SCHWRZ=T   FDIFF=T,  DIRTHR=  0.00E+00 NITDIR=10
 SCHWARZ INEQUALITY OVERHEAD:       779 INTEGRALS, T=        0.00

 DFT CODE IS SWITCHING FROM THE FINE GRID NRAD= 96,  NLEB=  590
                      TO THE COARSE GRID NRAD0= 24, NLEB0=  110

     EXCHANGE FUNCTIONAL   =B88&HFX   
     CORRELATION FUNCTIONAL=LYP88&VWN5
     DFT THRESHOLD         =.785E-08
     GRID CHANGE THRESHOLD =.300E-03
 FOR AN EULER-MACLAURIN QUADRATURE USING  96 RADIAL POINTS:
 SMALLEST GAUSSIAN PRIMITIVE EXPONENT=        0.1831915800 OF TYPE -S-
 ON ATOM NUMBER   4 HAS RADIAL NORMALIZATION=  1.000000
  LARGEST GAUSSIAN PRIMITIVE EXPONENT=      172.2560000000 OF TYPE -S-
 ON ATOM NUMBER   1 HAS RADIAL NORMALIZATION=  1.000000
 DFT IS SWITCHED OFF, PERFORMING PURE SCF UNTIL SWOFF THRESHOLD IS REACHED.

                                                                                   NONZERO     BLOCKS
 ITER EX DEM     TOTAL ENERGY        E CHANGE  DENSITY CHANGE    DIIS ERROR      INTEGRALS    SKIPPED
   1  0  0     -116.1981114445  -116.1981114445   0.447342550   0.531983759         165963       1672
          * * *   INITIATING DIIS PROCEDURE   * * *
   2  1  0     -116.4080634677    -0.2099520232   0.083795185   0.076672998         165590       1903
   3  2  0     -116.4177699700    -0.0097065023   0.033016473   0.025260905         164762       2190
   4  3  0     -116.4193216501    -0.0015516801   0.012406356   0.007132266         163689       2508
   5  4  0     -116.4195060550    -0.0001844049   0.002722826   0.002232191         162865       2718
 CONVERGED TO SWOFF, SO DFT CALCULATION IS NOW SWITCHED ON.
          * * *   INITIATING DIIS PROCEDURE   * * *
   6  5  0     -117.1666013872    -0.7470953322   0.073630164   0.073796856         165983       1653
   7  6  0     -117.1731442694    -0.0065428822   0.031794072   0.026159453         165079       2128
   8  7  0     -117.1746389131    -0.0014946437   0.017383760   0.017824306         164378       2264
   9  8  0     -117.1757307525    -0.0010918394   0.003484219   0.006961528         163604       2495
  10  9  0     -117.1757813111    -0.0000505586   0.000402605   0.000359672         161577       3091
  11 10  0     -117.1757815431    -0.0000002320   0.000191926   0.000183351         157845       3741
 DFT CODE IS SWITCHING BACK TO THE FINE GRID
          * * *   INITIATING DIIS PROCEDURE   * * *
  12 11  0     -117.1759712354    -0.0001896923   0.003311031   0.000787293         165999       1646
  13 12  0     -117.1759753317    -0.0000040963   0.000417317   0.000165165         161560       3040
  14 13  0     -117.1759753284     0.0000000033   0.000141954   0.000200427         157752       3754
  15 14  0     -117.1759753964    -0.0000000680   0.000055790   0.000071366         155768       4222
  16 15  0     -117.1759754014    -0.0000000050   0.000010181   0.000017769         152590       4929
  17 16  0     -117.1759754020    -0.0000000006   0.000001156   0.000000854         148482       5637

          -----------------
          DENSITY CONVERGED
          -----------------
     TIME TO FORM FOCK OPERATORS=       4.1 SECONDS (       0.2 SEC/ITER)
     FOCK TIME ON FIRST ITERATION=       0.0, LAST ITERATION=       0.6
     TIME TO SOLVE SCF EQUATIONS=       0.1 SECONDS (       0.0 SEC/ITER)

 FINAL R-B3LYP ENERGY IS     -117.1759754020 AFTER  17 ITERATIONS
 DFT EXCHANGE + CORRELATION ENERGY =       -14.8334216257
 TOTAL ELECTRON NUMBER             =        24.0000181981

          ------------
          EIGENVECTORS
          ------------

                      1          2          3          4          5
                  -10.1180   -10.1068   -10.1030    -0.7813    -0.6778
                     A'         A'         A'         A'         A'  
    1  C  1  S   -0.035258   0.984873   0.039440  -0.125298  -0.159889
    2  C  1  S   -0.006187   0.112168   0.003515   0.122177   0.152728
    3  C  1  X    0.000861   0.000011   0.000487  -0.046509   0.010516
    4  C  1  Y    0.000027   0.000020   0.000881  -0.035037   0.026119
    5  C  1  Z    0.000000   0.000000   0.000000   0.000000   0.000000
    6  C  1  S    0.023256  -0.092871  -0.001702   0.316705   0.491600
    7  C  1  X   -0.011608   0.005489  -0.001871  -0.005048  -0.006280
    8  C  1  Y   -0.007303   0.002550  -0.001471  -0.005822   0.008837
    9  C  1  Z    0.000000   0.000000   0.000000   0.000000   0.000000
   10  C  2  S    0.984585   0.033492   0.035948  -0.162494   0.036084
   11  C  2  S    0.108427   0.001733  -0.000441   0.173567  -0.038795
   12  C  2  X    0.000773  -0.000599  -0.000047   0.039350   0.084502
   13  C  2  Y   -0.000436  -0.000547   0.003148  -0.043842   0.156180
   14  C  2  Z    0.000000   0.000000   0.000000   0.000000   0.000000
   15  C  2  S   -0.088318   0.015092   0.023907   0.343661  -0.096813
   16  C  2  X   -0.010929   0.012911  -0.000995   0.011859   0.009203
   17  C  2  Y    0.007406   0.011271  -0.016077  -0.013266   0.027140
   18  C  2  Z    0.000000   0.000000   0.000000   0.000000   0.000000
   19  C  3  S   -0.034735  -0.040817   0.984024  -0.119056   0.142636
   20  C  3  S   -0.008282  -0.005631   0.106042   0.130102  -0.150280
   21  C  3  X   -0.000332  -0.000611  -0.000045   0.011418   0.019894
   22  C  3  Y   -0.002672  -0.001018   0.000025   0.088286  -0.036550
   23  C  3  Z    0.000000   0.000000   0.000000   0.000000   0.000000
   24  C  3  S    0.032164   0.007247  -0.076948   0.237238  -0.365988
   25  C  3  X    0.005839  -0.000369   0.000359  -0.003910   0.013073
   26  C  3  Y    0.015603   0.005093  -0.008438   0.004076  -0.011699
   27  C  3  Z    0.000000   0.000000   0.000000   0.000000   0.000000
   28  H  4  S   -0.001472  -0.000159  -0.000307   0.059290   0.093301
   29  H  4  S    0.001901   0.015942   0.000936  -0.004523   0.016064
   30  H  5  S   -0.001472  -0.000159  -0.000307   0.059290   0.093301
   31  H  5  S    0.001901   0.015942   0.000936  -0.004523   0.016064
   32  H  6  S   -0.000846  -0.000044  -0.000170   0.055886   0.103025
   33  H  6  S   -0.000477   0.016040   0.002239  -0.002534   0.021757
   34  H  7  S   -0.002090  -0.000966  -0.001192   0.072105  -0.019594
   35  H  7  S    0.011018   0.001361   0.001860   0.006895  -0.004908
   36  H  8  S   -0.001609  -0.000207  -0.002035   0.054738  -0.076482
   37  H  8  S   -0.002066   0.000859   0.013551   0.005524  -0.018173
   38  H  9  S   -0.000509  -0.000197  -0.001921   0.048800  -0.089448
   39  H  9  S    0.002166   0.001310   0.014032  -0.004272  -0.024355

                      6          7          8          9         10
                   -0.5471    -0.4628    -0.4181    -0.4111    -0.3626
                     A'         A'         A'         A''        A'  
    1  C  1  S    0.054987   0.015647   0.008991   0.000000   0.009349
    2  C  1  S   -0.051030  -0.011387  -0.005188   0.000000  -0.008694
    3  C  1  X   -0.133528  -0.026848  -0.253774   0.000000  -0.038087
    4  C  1  Y   -0.021646  -0.209378   0.039268   0.000000   0.319930
    5  C  1  Z    0.000000   0.000000   0.000000   0.371069   0.000000
    6  C  1  S   -0.213594  -0.078618  -0.054068   0.000000  -0.044857
    7  C  1  X   -0.063689   0.000573  -0.175977   0.000000  -0.030145
    8  C  1  Y    0.001557  -0.137434   0.028056   0.000000   0.253684
    9  C  1  Z    0.000000   0.000000   0.000000   0.285460   0.000000
   10  C  2  S   -0.129010  -0.033083  -0.005289   0.000000   0.004135
   11  C  2  S    0.132895   0.036739   0.002147   0.000000   0.001887
   12  C  2  X   -0.103605   0.213914   0.109017   0.000000  -0.021189
   13  C  2  Y    0.096750  -0.128911   0.255478   0.000000  -0.228451
   14  C  2  Z    0.000000   0.000000   0.000000   0.133120   0.000000
   15  C  2  S    0.432642   0.112178   0.029163   0.000000  -0.046447
   16  C  2  X   -0.043752   0.149462   0.066263   0.000000  -0.000230
   17  C  2  Y    0.052596  -0.085253   0.161117   0.000000  -0.116616
   18  C  2  Z    0.000000   0.000000   0.000000   0.100608   0.000000
   19  C  3  S    0.097722   0.021496  -0.001750   0.000000  -0.027228
   20  C  3  S   -0.098717  -0.016834  -0.004735   0.000000   0.032856
   21  C  3  X   -0.048286   0.226243   0.190991   0.000000   0.112675
   22  C  3  Y    0.159039   0.164735  -0.239045   0.000000   0.214973
   23  C  3  Z    0.000000   0.000000   0.000000   0.060436   0.000000
   24  C  3  S   -0.330084  -0.110414   0.050264   0.000000   0.097139
   25  C  3  X   -0.037555   0.141085   0.130627   0.000000   0.081671
   26  C  3  Y    0.066467   0.077805  -0.136702   0.000000   0.139172
   27  C  3  Z    0.000000   0.000000   0.000000   0.051429   0.000000
   28  H  4  S   -0.074011   0.007282  -0.103253   0.205870  -0.077096
   29  H  4  S   -0.043466   0.004596  -0.086819   0.182018  -0.073148
   30  H  5  S   -0.074011   0.007282  -0.103253  -0.205870  -0.077096
   31  H  5  S   -0.043466   0.004596  -0.086819  -0.182018  -0.073148
   32  H  6  S   -0.037015  -0.136048   0.050771   0.000000   0.236577
   33  H  6  S   -0.014002  -0.106811   0.049850   0.000000   0.241412
   34  H  7  S    0.172061  -0.117596   0.033843   0.000000  -0.079076
   35  H  7  S    0.094217  -0.095832   0.032486   0.000000  -0.078599
   36  H  8  S   -0.141731   0.040460   0.189804   0.000000   0.009850
   37  H  8  S   -0.079453   0.030440   0.162743   0.000000  -0.010829
   38  H  9  S   -0.097077  -0.184245  -0.028552   0.000000  -0.124985
   39  H  9  S   -0.054994  -0.145710  -0.019727   0.000000  -0.136606

                     11         12         13         14         15
                   -0.3407    -0.2447     0.0270     0.1341     0.1584
                     A'         A''        A''        A'         A'  
    1  C  1  S   -0.024060   0.000000   0.000000   0.064508  -0.135478
    2  C  1  S    0.025003   0.000000   0.000000  -0.031482   0.060333
    3  C  1  X   -0.250414   0.000000   0.000000   0.005730   0.184614
    4  C  1  Y   -0.042570   0.000000   0.000000  -0.151480  -0.037892
    5  C  1  Z    0.000000  -0.113240  -0.023469   0.000000   0.000000
    6  C  1  S    0.099880   0.000000   0.000000  -0.850696   1.821198
    7  C  1  X   -0.196319   0.000000   0.000000  -0.010494   0.596281
    8  C  1  Y   -0.009195   0.000000   0.000000  -0.570085  -0.091102
    9  C  1  Z    0.000000  -0.106715  -0.178989   0.000000   0.000000
   10  C  2  S   -0.006605   0.000000   0.000000   0.066070   0.030960
   11  C  2  S    0.010633   0.000000   0.000000  -0.034708  -0.000296
   12  C  2  X    0.277392   0.000000   0.000000   0.151584   0.071756
   13  C  2  Y   -0.022087   0.000000   0.000000  -0.105935  -0.047050
   14  C  2  Z    0.000000   0.320661  -0.364559   0.000000   0.000000
   15  C  2  S    0.010482   0.000000   0.000000  -0.958686  -0.320066
   16  C  2  X    0.211552   0.000000   0.000000   0.422212   0.122337
   17  C  2  Y   -0.040382   0.000000   0.000000  -0.179248  -0.249041
   18  C  2  Z    0.000000   0.340954  -0.624099   0.000000   0.000000
   19  C  3  S   -0.007068   0.000000   0.000000   0.055558  -0.028294
   20  C  3  S    0.010264   0.000000   0.000000  -0.042108   0.030576
   21  C  3  X   -0.221892   0.000000   0.000000   0.087238   0.108274
   22  C  3  Y    0.033477   0.000000   0.000000   0.076868  -0.044610
   23  C  3  Z    0.000000   0.347524   0.340342   0.000000   0.000000
   24  C  3  S    0.013175   0.000000   0.000000  -0.592417   0.253915
   25  C  3  X   -0.182832   0.000000   0.000000   0.257788   0.275511
   26  C  3  Y    0.002938   0.000000   0.000000   0.415948  -0.248151
   27  C  3  Z    0.000000   0.366805   0.641172   0.000000   0.000000
   28  H  4  S   -0.077406  -0.094401   0.080207  -0.027012  -0.041830
   29  H  4  S   -0.100545  -0.109588   0.334828   0.100363  -1.151682
   30  H  5  S   -0.077406   0.094401  -0.080207  -0.027012  -0.041830
   31  H  5  S   -0.100545   0.109588  -0.334828   0.100363  -1.151682
   32  H  6  S    0.027196   0.000000   0.000000   0.082680   0.016869
   33  H  6  S    0.004086   0.000000   0.000000   1.091778  -0.351035
   34  H  7  S   -0.195125   0.000000   0.000000   0.059788   0.080834
   35  H  7  S   -0.200148   0.000000   0.000000   1.062381   0.597927
   36  H  8  S   -0.164493   0.000000   0.000000  -0.029471  -0.007965
   37  H  8  S   -0.184991   0.000000   0.000000   0.149530  -0.618016
   38  H  9  S    0.154883   0.000000   0.000000   0.072043  -0.003977
   39  H  9  S    0.149591   0.000000   0.000000   0.874284   0.045857

                     16         17         18         19         20
                    0.1763     0.2101     0.2144     0.2296     0.3277
                     A'         A'         A''        A'         A'  
    1  C  1  S    0.082464   0.022534   0.000000   0.066716   0.070223
    2  C  1  S   -0.026365  -0.020489   0.000000  -0.030287   0.009105
    3  C  1  X    0.014450   0.028267   0.000000   0.223994   0.113516
    4  C  1  Y   -0.022231   0.261501   0.000000  -0.133773   0.096170
    5  C  1  Z    0.000000   0.000000  -0.379141   0.000000   0.000000
    6  C  1  S   -1.166510  -0.108799   0.000000  -0.818884  -1.383748
    7  C  1  X    0.072172   0.071209   0.000000   1.028721   1.181319
    8  C  1  Y    0.118748   0.936722   0.000000  -0.482776   1.069487
    9  C  1  Z    0.000000   0.000000  -1.380315   0.000000   0.000000
   10  C  2  S    0.008831  -0.050545   0.000000  -0.136509  -0.076263
   11  C  2  S   -0.024200   0.020713   0.000000   0.073324   0.018855
   12  C  2  X    0.097969   0.085134   0.000000  -0.053280   0.362246
   13  C  2  Y    0.049900   0.033251   0.000000   0.130668   0.007723
   14  C  2  Z    0.000000   0.000000   0.123756   0.000000   0.000000
   15  C  2  S    0.044669   0.673384   0.000000   1.900503   1.334812
   16  C  2  X    0.415891   0.160907   0.000000  -0.217803   1.998531
   17  C  2  Y    0.253134   0.011561   0.000000   0.573755   0.060172
   18  C  2  Z    0.000000   0.000000   0.439387   0.000000   0.000000
   19  C  3  S   -0.126514   0.052370   0.000000   0.042872   0.028219
   20  C  3  S    0.065715  -0.021355   0.000000  -0.030735   0.001583
   21  C  3  X    0.113473   0.282529   0.000000   0.050660  -0.204458
   22  C  3  Y   -0.164906   0.081897   0.000000  -0.063027   0.021877
   23  C  3  Z    0.000000   0.000000  -0.108894   0.000000   0.000000
   24  C  3  S    1.659995  -0.789247   0.000000  -0.333587  -0.480394
   25  C  3  X    0.345497   0.946529   0.000000   0.324004  -1.337299
   26  C  3  Y   -0.499243   0.117500   0.000000  -0.244711  -0.298282
   27  C  3  Z    0.000000   0.000000  -0.214212   0.000000   0.000000
   28  H  4  S    0.031362   0.007114   0.062174  -0.044100  -0.055959
   29  H  4  S    0.420875   0.289642   1.383517  -0.433849  -0.019792
   30  H  5  S    0.031362   0.007114  -0.062174  -0.044100  -0.055959
   31  H  5  S    0.420875   0.289642  -1.383517  -0.433849  -0.019792
   32  H  6  S   -0.028925  -0.059268   0.000000   0.041602  -0.072998
   33  H  6  S    0.320512  -1.053489   0.000000   1.152219  -0.337150
   34  H  7  S    0.034766   0.008578   0.000000  -0.012416  -0.025699
   35  H  7  S    0.353043  -0.070409   0.000000  -1.300960   1.144439
   36  H  8  S   -0.105572  -0.011621   0.000000  -0.014300  -0.043267
   37  H  8  S   -1.530640  -0.535114   0.000000  -0.222441   1.107494
   38  H  9  S   -0.014096   0.058517   0.000000   0.037488   0.042167
   39  H  9  S   -0.612255   1.486708   0.000000   0.400114  -0.956812

                     21         22         23         24         25
                    0.3874     0.6579     0.7126     0.7277     0.7531
                     A'         A'         A'         A''        A'  
    1  C  1  S    0.004473  -0.009445  -0.000780   0.000000  -0.036451
    2  C  1  S   -0.008081   0.061664  -0.003885   0.000000   0.121685
    3  C  1  X    0.083337   0.113989   0.384047   0.000000  -0.842092
    4  C  1  Y    0.071455  -0.493205   0.347760   0.000000  -0.216105
    5  C  1  Z    0.000000   0.000000   0.000000  -0.356158   0.000000
    6  C  1  S   -0.259876  -0.309942  -0.312580   0.000000  -0.191215
    7  C  1  X    0.707803  -0.080095  -0.417853   0.000000   1.314783
    8  C  1  Y   -0.270128   0.668398  -0.522585   0.000000   0.226127
    9  C  1  Z    0.000000   0.000000   0.000000   0.709635   0.000000
   10  C  2  S    0.083193   0.023550   0.010050   0.000000   0.064732
   11  C  2  S   -0.000133   0.019552   0.059604   0.000000   0.019373
   12  C  2  X    0.017129  -0.021750  -0.317964   0.000000  -0.243374
   13  C  2  Y    0.287457  -0.301330  -0.391199   0.000000  -0.062853
   14  C  2  Z    0.000000   0.000000   0.000000  -0.686382   0.000000
   15  C  2  S   -2.339964   0.253621  -0.139649   0.000000   0.425967
   16  C  2  X    0.169784   0.250898   0.280158   0.000000   0.514467
   17  C  2  Y    2.689785   0.606789   0.643388   0.000000   0.472336
   18  C  2  Z    0.000000   0.000000   0.000000   0.359430   0.000000
   19  C  3  S   -0.102654  -0.003213   0.010108   0.000000  -0.026146
   20  C  3  S    0.000572   0.120088   0.030441   0.000000   0.114173
   21  C  3  X   -0.045525   0.205933  -0.334574   0.000000  -0.034134
   22  C  3  Y    0.152211   0.511883   0.355305   0.000000   0.365008
   23  C  3  Z    0.000000   0.000000   0.000000  -0.584279   0.000000
   24  C  3  S    2.654049   0.213053   0.429187   0.000000   0.279417
   25  C  3  X   -0.021768  -0.421084   0.586377   0.000000   0.074394
   26  C  3  Y    2.555886  -0.463941  -0.541516   0.000000  -0.242392
   27  C  3  Z    0.000000   0.000000   0.000000   0.483969   0.000000
   28  H  4  S   -0.022049   0.225817   0.070908  -0.322232  -0.192736
   29  H  4  S   -0.287963  -0.071332   0.008795  -0.085174  -0.181315
   30  H  5  S   -0.022049   0.225817   0.070908   0.322232  -0.192736
   31  H  5  S   -0.287963  -0.071332   0.008795   0.085174  -0.181315
   32  H  6  S   -0.051747  -0.435022   0.111053   0.000000   0.030881
   33  H  6  S    0.109564   0.096303   0.088622   0.000000  -0.042916
   34  H  7  S   -0.023602  -0.207938   0.243742   0.000000   0.433714
   35  H  7  S   -0.446950   0.065810  -0.156549   0.000000  -0.175735
   36  H  8  S    0.037220   0.167870  -0.380318   0.000000  -0.137701
   37  H  8  S    0.440552   0.019639  -0.148809   0.000000  -0.048565
   38  H  9  S    0.105665  -0.181196   0.257620   0.000000   0.049117
   39  H  9  S    0.256682  -0.067460  -0.100610   0.000000  -0.031205

                     26         27         28         29         30
                    0.7938     0.8490     0.8625     0.9366     0.9645
                     A''        A'         A''        A'         A'  
    1  C  1  S    0.000000  -0.010503   0.000000  -0.070002   0.005413
    2  C  1  S    0.000000   0.017284   0.000000   0.063267  -0.036938
    3  C  1  X    0.000000  -0.114573   0.000000   0.027210  -0.413790
    4  C  1  Y    0.000000  -0.098960   0.000000  -0.054963   0.692211
    5  C  1  Z   -0.516582   0.000000  -0.552555   0.000000   0.000000
    6  C  1  S    0.000000  -0.216182   0.000000  -0.275771   0.094639
    7  C  1  X    0.000000   0.252046   0.000000   0.386183   0.977887
    8  C  1  Y    0.000000   0.261836   0.000000   0.404722  -1.735923
    9  C  1  Z    0.908431   0.000000   1.451809   0.000000   0.000000
   10  C  2  S    0.000000  -0.039807   0.000000  -0.012389  -0.008437
   11  C  2  S    0.000000   0.143955   0.000000  -0.276589   0.033897
   12  C  2  X    0.000000  -0.160762   0.000000  -0.594264   0.398058
   13  C  2  Y    0.000000  -0.592577   0.000000  -0.233056  -0.562538
   14  C  2  Z   -0.208115   0.000000   0.804533   0.000000   0.000000
   15  C  2  S    0.000000  -0.128779   0.000000   0.199567  -0.173938
   16  C  2  X    0.000000   0.350305   0.000000   0.868567  -1.252823
   17  C  2  Y    0.000000   0.607108   0.000000   0.427794   1.879031
   18  C  2  Z    0.163252   0.000000  -1.387137   0.000000   0.000000
   19  C  3  S    0.000000   0.080016   0.000000  -0.004066   0.006415
   20  C  3  S    0.000000   0.141079   0.000000  -0.166977  -0.047343
   21  C  3  X    0.000000  -0.028653   0.000000   0.023146   0.003759
   22  C  3  Y    0.000000  -0.437648   0.000000  -0.388109  -0.043625
   23  C  3  Z    0.847681   0.000000  -0.312758   0.000000   0.000000
   24  C  3  S    0.000000  -0.167569   0.000000   0.238534   1.244883
   25  C  3  X    0.000000   0.010875   0.000000  -0.112025   0.188731
   26  C  3  Y    0.000000   0.767869   0.000000   0.401962   0.293594
   27  C  3  Z   -0.863311   0.000000   0.673460   0.000000   0.000000
   28  H  4  S   -0.273107  -0.000278  -0.249947  -0.421980   0.069691
   29  H  4  S   -0.111865  -0.026062  -0.352809   0.111367  -0.526559
   30  H  5  S    0.273107  -0.000278   0.249947  -0.421980   0.069691
   31  H  5  S    0.111865  -0.026062   0.352809   0.111367  -0.526559
   32  H  6  S    0.000000  -0.089267   0.000000  -0.420235  -0.107120
   33  H  6  S    0.000000  -0.090391   0.000000  -0.023448   1.073505
   34  H  7  S    0.000000   0.053383   0.000000  -0.547425  -0.302221
   35  H  7  S    0.000000  -0.020800   0.000000   0.619414  -0.885094
   36  H  8  S    0.000000   0.630596   0.000000  -0.392594   0.063259
   37  H  8  S    0.000000  -0.133233   0.000000   0.355198  -0.284845
   38  H  9  S    0.000000   0.718409   0.000000  -0.255813  -0.373451
   39  H  9  S    0.000000  -0.185959   0.000000   0.237872   0.274212

                     31         32         33         34         35
                    1.0353     1.0534     1.0899     1.0939     1.1350
                     A'         A''        A'         A'         A'  
    1  C  1  S   -0.024020   0.000000  -0.022221   0.033206   0.075106
    2  C  1  S   -0.018880   0.000000   0.098497  -0.075942  -0.297629
    3  C  1  X    0.171269   0.000000   0.323576   0.004589  -0.221618
    4  C  1  Y   -0.254916   0.000000  -0.252362  -0.124996  -0.402310
    5  C  1  Z    0.000000   0.755063   0.000000   0.000000   0.000000
    6  C  1  S    0.523630   0.000000  -0.171246  -0.377324   0.059105
    7  C  1  X   -0.403995   0.000000  -0.245769   0.504183   0.560908
    8  C  1  Y    0.283453   0.000000  -0.072137  -0.190327   0.840914
    9  C  1  Z    0.000000  -0.912747   0.000000   0.000000   0.000000
   10  C  2  S    0.020560   0.000000   0.030942  -0.023209  -0.022936
   11  C  2  S   -0.107224   0.000000  -0.150812   0.110054   0.081856
   12  C  2  X    0.273987   0.000000   0.438273  -0.286599  -0.132089
   13  C  2  Y   -0.107886   0.000000  -0.486963   0.019433  -0.313400
   14  C  2  Z    0.000000   0.124261   0.000000   0.000000   0.000000
   15  C  2  S    0.001062   0.000000  -0.223185   0.040699  -0.307558
   16  C  2  X   -1.076673   0.000000  -0.685718   0.563804   0.630730
   17  C  2  Y    0.050200   0.000000   1.281621   0.670748   1.016652
   18  C  2  Z    0.000000  -0.094890   0.000000   0.000000   0.000000
   19  C  3  S   -0.003844   0.000000  -0.015977   0.010122  -0.026323
   20  C  3  S    0.009780   0.000000   0.063602  -0.023255   0.111392
   21  C  3  X   -0.912119   0.000000   0.491064   0.076618  -0.195551
   22  C  3  Y   -0.004843   0.000000  -0.162913   0.357251  -0.537611
   23  C  3  Z    0.000000   0.057472   0.000000   0.000000   0.000000
   24  C  3  S    0.004518   0.000000   0.700226   0.673866   0.189494
   25  C  3  X    1.851573   0.000000  -0.765672  -0.391650   0.271126
   26  C  3  Y    0.029500   0.000000   0.642849  -0.351349   1.187455
   27  C  3  Z    0.000000  -0.044773   0.000000   0.000000   0.000000
   28  H  4  S   -0.295644  -0.800656  -0.423553  -0.187684   0.501312
   29  H  4  S    0.331886   1.224828   0.506176   0.130526  -0.458551
   30  H  5  S   -0.295644   0.800656  -0.423553  -0.187684   0.501312
   31  H  5  S    0.331886  -1.224828   0.506176   0.130526  -0.458551
   32  H  6  S    0.019881   0.000000   0.442021   0.965945   0.493391
   33  H  6  S   -0.387948   0.000000  -0.491678  -0.719825  -0.855358
   34  H  7  S    0.150164   0.000000   0.467296  -0.721260   0.001168
   35  H  7  S   -0.605615   0.000000  -1.186530   0.750858   0.048817
   36  H  8  S    0.478287   0.000000  -0.323813   0.368012  -0.441026
   37  H  8  S   -1.301703   0.000000   0.799873  -0.396073   0.656656
   38  H  9  S   -0.519922   0.000000  -0.042093  -0.003910  -0.387700
   39  H  9  S    1.392188   0.000000  -0.291500  -0.359435   0.840781

                     36         37         38         39
                    1.3661     1.4722     1.7454     1.9235
                     A'         A'         A'         A'  
    1  C  1  S    0.001521   0.031188  -0.003324  -0.072327
    2  C  1  S    0.307280  -0.322164   0.933155  -1.819245
    3  C  1  X    0.167650   0.036702  -0.039918   0.004473
    4  C  1  Y    0.256748   0.118457  -0.157443  -0.062026
    5  C  1  Z    0.000000   0.000000   0.000000   0.000000
    6  C  1  S   -1.501607  -0.804352  -1.259914   4.822734
    7  C  1  X    0.020444   0.678565  -0.199237  -0.840468
    8  C  1  Y   -0.043117   0.388374  -0.050232  -0.438515
    9  C  1  Z    0.000000   0.000000   0.000000   0.000000
   10  C  2  S   -0.014475   0.010388   0.000909   0.045547
   11  C  2  S    0.814840  -0.672731   1.214443   1.093481
   12  C  2  X   -0.441497  -0.371383   0.123775   0.072188
   13  C  2  Y    0.031014  -0.114177  -0.073891  -0.022612
   14  C  2  Z    0.000000   0.000000   0.000000   0.000000
   15  C  2  S   -1.220679   0.659931  -3.104993  -3.514482
   16  C  2  X    2.305030   2.260077  -0.311019  -1.503667
   17  C  2  Y   -0.050288   0.601180   1.319082  -0.257793
   18  C  2  Z    0.000000   0.000000   0.000000   0.000000
   19  C  3  S   -0.024100   0.021084  -0.007165  -0.008181
   20  C  3  S    0.718414  -1.141307  -1.273259  -0.295225
   21  C  3  X    0.222827   0.222312  -0.077875   0.042507
   22  C  3  Y   -0.150473   0.013418  -0.070820   0.089880
   23  C  3  Z    0.000000   0.000000   0.000000   0.000000
   24  C  3  S   -0.860559   1.943899   3.559850   1.283125
   25  C  3  X   -1.923672  -1.863844   0.477030   0.468140
   26  C  3  Y    0.460808   0.164608   1.128145   0.233982
   27  C  3  Z    0.000000   0.000000   0.000000   0.000000
   28  H  4  S   -0.036281   0.140498   0.014411  -0.326980
   29  H  4  S    0.242471  -0.273876   0.433679  -0.486431
   30  H  5  S   -0.036281   0.140498   0.014411  -0.326980
   31  H  5  S    0.242471  -0.273876   0.433679  -0.486431
   32  H  6  S   -0.033239   0.073856   0.073544  -0.300103
   33  H  6  S    0.335564  -0.144501   0.176080  -0.633815
   34  H  7  S    0.411917   0.531245  -0.012516   0.074745
   35  H  7  S    1.067846   0.247631   0.116475   0.000084
   36  H  8  S    0.390454   0.495722  -0.192804  -0.127131
   37  H  8  S    0.917915   0.050697  -0.449425  -0.321373
   38  H  9  S   -0.682167  -0.387164  -0.030809   0.059053
   39  H  9  S    0.050972  -0.955693  -0.142073  -0.096163
 ...... END OF RHF CALCULATION ......
 STEP CPU TIME =     4.26 TOTAL CPU TIME =          4.3 (      0.1 MIN)
 TOTAL WALL CLOCK TIME=          4.4 SECONDS, CPU UTILIZATION IS    97.72%

     ---------------------------------------------------------------------
     PROPERTIES FOR THE B3LYP    DFT FUNCTIONAL (RHF  TYPE) DENSITY MATRIX
     ---------------------------------------------------------------------

          -----------------
          ENERGY COMPONENTS
          -----------------

         WAVEFUNCTION NORMALIZATION =       1.0000000000

                ONE ELECTRON ENERGY =    -296.3326409321
                TWO ELECTRON ENERGY =     108.2687250242
           NUCLEAR REPULSION ENERGY =      70.8879405059
                                      ------------------
                       TOTAL ENERGY =    -117.1759754020

 ELECTRON-ELECTRON POTENTIAL ENERGY =     108.2687250242
  NUCLEUS-ELECTRON POTENTIAL ENERGY =    -412.5268376681
   NUCLEUS-NUCLEUS POTENTIAL ENERGY =      70.8879405059
                                      ------------------
             TOTAL POTENTIAL ENERGY =    -233.3701721380
               TOTAL KINETIC ENERGY =     116.1941967360
                 VIRIAL RATIO (V/T) =       2.0084494639

          ---------------------------------------
          MULLIKEN AND LOWDIN POPULATION ANALYSES
          ---------------------------------------

     ATOMIC MULLIKEN POPULATION IN EACH MOLECULAR ORBITAL

                      1          2          3          4          5

                  2.000000   2.000000   2.000000   2.000000   2.000000

    1             0.007757   1.978609   0.003262   0.568010   0.829709
    2             1.979549   0.008111   0.010609   0.831470   0.215832
    3             0.010526   0.003603   1.980623   0.466869   0.605687
    4             0.000035   0.003203   0.000011   0.019972   0.069390
    5             0.000035   0.003203   0.000011   0.019972   0.069390
    6            -0.000007   0.003248   0.000021   0.019339   0.089311
    7             0.002096   0.000033   0.000063   0.039107   0.003171
    8            -0.000035  -0.000002   0.002649   0.022844   0.047710
    9             0.000042  -0.000009   0.002753   0.012417   0.069799

                      6          7          8          9         10

                  2.000000   2.000000   2.000000   2.000000   2.000000

    1             0.234482   0.346271   0.455916   1.040122   0.693702
    2             0.614265   0.458891   0.428444   0.167469   0.227185
    3             0.499625   0.561298   0.576461   0.037775   0.306057
    4             0.053573   0.000400   0.093233   0.377317   0.048002
    5             0.053573   0.000400   0.093233   0.377317   0.048002
    6             0.010769   0.173535   0.023321   0.000000   0.482324
    7             0.262125   0.132747   0.011083   0.000000   0.051364
    8             0.186114   0.013936   0.312621   0.000000   0.000790
    9             0.085474   0.312521   0.005688   0.000000   0.142575

                     11         12

                  2.000000   2.000000

    1             0.383957   0.063105
    2             0.425874   0.815437
    3             0.322977   0.997720
    4             0.062635   0.061869
    5             0.062635   0.061869
    6             0.003557   0.000000
    7             0.311793   0.000000
    8             0.237533   0.000000
    9             0.189039   0.000000

               ----- POPULATIONS IN EACH AO -----
                             MULLIKEN      LOWDIN
              1  C  1  S      1.98642     1.97423
              2  C  1  S      0.37001     0.41948
              3  C  1  X      0.56411     0.53145
              4  C  1  Y      0.57260     0.53537
              5  C  1  Z      0.56969     0.52838
              6  C  1  S      1.11352     0.56985
              7  C  1  X      0.41573     0.55465
              8  C  1  Y      0.47929     0.56592
              9  C  1  Z      0.53353     0.59179
             10  C  2  S      1.98581     1.97506
             11  C  2  S      0.40234     0.42252
             12  C  2  X      0.57997     0.54221
             13  C  2  Y      0.63849     0.60225
             14  C  2  Z      0.43523     0.41748
             15  C  2  S      0.91531     0.55139
             16  C  2  X      0.38632     0.52242
             17  C  2  Y      0.29199     0.49828
             18  C  2  Z      0.54767     0.56094
             19  C  3  S      1.98512     1.97531
             20  C  3  S      0.40145     0.42766
             21  C  3  X      0.57723     0.52992
             22  C  3  Y      0.62923     0.59290
             23  C  3  Z      0.44944     0.43683
             24  C  3  S      0.95843     0.57903
             25  C  3  X      0.48049     0.55772
             26  C  3  Y      0.30178     0.50313
             27  C  3  Z      0.58606     0.60388
             28  H  4  S      0.46865     0.46725
             29  H  4  S      0.32099     0.42856
             30  H  5  S      0.46865     0.46725
             31  H  5  S      0.32099     0.42856
             32  H  6  S      0.47455     0.47354
             33  H  6  S      0.33087     0.43260
             34  H  7  S      0.47903     0.47463
             35  H  7  S      0.33455     0.43568
             36  H  8  S      0.47658     0.46716
             37  H  8  S      0.34758     0.44518
             38  H  9  S      0.47752     0.46767
             39  H  9  S      0.34278     0.44186

          ----- MULLIKEN ATOMIC OVERLAP POPULATIONS -----
          (OFF-DIAGONAL ELEMENTS NEED TO BE MULTIPLIED BY 2)

             1           2           3           4           5

    1    5.3412671
    2    0.2974217   5.1514173
    3   -0.0886775   0.5654423   5.1767958
    4    0.3682925  -0.0450627  -0.0044414   0.5173996
    5    0.3682925  -0.0450627  -0.0044414  -0.0239388   0.5173996
    6    0.3643365  -0.0365504   0.0041783  -0.0265057  -0.0265057
    7   -0.0451570   0.3907731  -0.0441040   0.0024910   0.0024910
    8   -0.0045593  -0.0528325   0.3858414   0.0014390   0.0014390
    9    0.0036863  -0.0424109   0.3786284  -0.0000320  -0.0000320

             6           7           8           9

    6    0.5307513
    7   -0.0042348   0.5123542
    8    0.0000453   0.0033395   0.5194750
    9   -0.0000974  -0.0043703  -0.0300291   0.5149560

          TOTAL MULLIKEN AND LOWDIN ATOMIC POPULATIONS
       ATOM         MULL.POP.    CHARGE          LOW.POP.     CHARGE
    1 C             6.604903   -0.604903         6.271124   -0.271124
    2 C             6.183135   -0.183135         6.092555   -0.092555
    3 C             6.369222   -0.369222         6.206385   -0.206385
    4 H             0.789642    0.210358         0.895806    0.104194
    5 H             0.789642    0.210358         0.895806    0.104194
    6 H             0.805417    0.194583         0.906141    0.093859
    7 H             0.813583    0.186417         0.910303    0.089697
    8 H             0.824158    0.175842         0.912344    0.087656
    9 H             0.820299    0.179701         0.909537    0.090463

          -------------------------------
          BOND ORDER AND VALENCE ANALYSIS     BOND ORDER THRESHOLD=0.050
          -------------------------------

                   BOND                       BOND                       BOND
  ATOM PAIR DIST  ORDER      ATOM PAIR DIST  ORDER      ATOM PAIR DIST  ORDER
    1   2  1.494  0.962        1   4  1.092  0.913        1   5  1.092  0.913
    1   6  1.089  0.925        2   3  1.340  1.915        2   7  1.086  0.930
    3   8  1.085  0.936        3   9  1.084  0.933

                       TOTAL       BONDED        FREE
      ATOM            VALENCE     VALENCE     VALENCE
    1 C                 3.692       3.692      -0.000
    2 C                 3.757       3.757      -0.000
    3 C                 3.780       3.780      -0.000
    4 H                 0.911       0.911       0.000
    5 H                 0.911       0.911       0.000
    6 H                 0.918       0.918       0.000
    7 H                 0.928       0.928      -0.000
    8 H                 0.934       0.934      -0.000
    9 H                 0.932       0.932       0.000

          ---------------------
          ELECTROSTATIC MOMENTS
          ---------------------

 POINT   1           X           Y           Z (BOHR)    CHARGE
                -0.004107   -0.001106    0.000000        0.00 (A.U.)
         DX          DY          DZ         /D/  (DEBYE)
     0.193352    0.281222    0.000000    0.341278
 ...... END OF PROPERTY EVALUATION ......
 STEP CPU TIME =     0.01 TOTAL CPU TIME =          4.3 (      0.1 MIN)
 TOTAL WALL CLOCK TIME=          4.4 SECONDS, CPU UTILIZATION IS    97.51%

 BEGINNING ONE ELECTRON GRADIENT...
 ..... END OF 1-ELECTRON GRADIENT ......
 STEP CPU TIME =     0.00 TOTAL CPU TIME =          4.3 (      0.1 MIN)
 TOTAL WALL CLOCK TIME=          4.4 SECONDS, CPU UTILIZATION IS    97.29%

          ----------------------
          GRADIENT OF THE ENERGY
          ----------------------
 MEMORY FOR GRID POINT CONTRIBUTIONS TO THE DFT GRADIENT=    584845 WORDS.
 STEP CPU TIME =     1.22 TOTAL CPU TIME =          5.5 (      0.1 MIN)
 TOTAL WALL CLOCK TIME=          5.6 SECONDS, CPU UTILIZATION IS    97.87%
 THE COARSE/FINE SCHWARZ SCREENINGS SKIPPED         2076/        1214 BLOCKS.
 THE NUMBER OF GRADIENT INTEGRAL BLOCKS COMPUTED WAS     16079
 ...... END OF 2-ELECTRON GRADIENT ......
 STEP CPU TIME =     0.01 TOTAL CPU TIME =          5.5 (      0.1 MIN)
 TOTAL WALL CLOCK TIME=          5.7 SECONDS, CPU UTILIZATION IS    97.19%

          NSERCH=  0     ENERGY=    -117.1759754

                                 -----------------------
                                 GRADIENT (HARTREE/BOHR)
                                 -----------------------
        ATOM     ZNUC       DE/DX         DE/DY         DE/DZ
 --------------------------------------------------------------
    1  C            6.0    -0.0040901    -0.0094631     0.0000000
    2  C            6.0     0.0058515     0.0213590     0.0000000
    3  C            6.0     0.0064117    -0.0104452     0.0000000
    4  H            1.0    -0.0034304     0.0004577    -0.0010744
    5  H            1.0    -0.0034304     0.0004577     0.0010744
    6  H            1.0    -0.0015317    -0.0049401     0.0000000
    7  H            1.0     0.0011672    -0.0004877     0.0000000
    8  H            1.0    -0.0011328     0.0011715     0.0000000
    9  H            1.0     0.0001850     0.0018903     0.0000000

          MAXIMUM GRADIENT = 0.0213590    RMS GRADIENT = 0.0054698

 NSERCH:   0  E=     -117.1759754020  GRAD. MAX=  0.0213590  R.M.S.=  0.0054698

          FORCE CONSTANT MATRIX NOT UPDATED --- TAKING FIRST STEP
          MIN SEARCH, CORRECT HESSIAN, TRYING PURE NR STEP
               NR STEP HAS LENGTH         =   0.142280
          RADIUS OF STEP TAKEN=   0.14228  CURRENT TRUST RADIUS=   0.30000

 BEGINNING GEOMETRY SEARCH POINT NSERCH=   1 ...

 COORDINATES OF SYMMETRY UNIQUE ATOMS (ANGS)
   ATOM   CHARGE       X              Y              Z
 ------------------------------------------------------------
 C           6.0   0.8204457675   0.9663699128   0.0000000000
 C           6.0  -0.4435737068   0.1509672861   0.0000000000
 C           6.0  -0.5038279183  -1.1762486404   0.0000000000
 H           1.0   1.4394131768   0.7160748544  -0.8713653362
 H           1.0   0.6377508231   2.0393098330   0.0000000000
 H           1.0  -1.3716163080   0.7226480847   0.0000000000
 H           1.0   0.4121517785  -1.7660843282   0.0000000000
 H           1.0  -1.4301567895  -1.7391118568   0.0000000000
 COORDINATES OF ALL ATOMS ARE (ANGS)
   ATOM   CHARGE       X              Y              Z
 ------------------------------------------------------------
 C           6.0   0.8204457675   0.9663699128   0.0000000000
 C           6.0  -0.4435737068   0.1509672861   0.0000000000
 C           6.0  -0.5038279183  -1.1762486404   0.0000000000
 H           1.0   1.4394131768   0.7160748544   0.8713653362
 H           1.0   1.4394131768   0.7160748544  -0.8713653362
 H           1.0   0.6377508231   2.0393098330   0.0000000000
 H           1.0  -1.3716163080   0.7226480847   0.0000000000
 H           1.0   0.4121517785  -1.7660843282   0.0000000000
 H           1.0  -1.4301567895  -1.7391118568   0.0000000000

          INTERNUCLEAR DISTANCES (ANGS.)
          ------------------------------

                1 C          2 C          3 C          4 H          5 H     

   1 C       0.0000000    1.5042030 *  2.5188321 *  1.0977458 *  1.0977458 *
   2 C       1.5042030 *  0.0000000    1.3285830 *  2.1504101 *  2.1504101 *
   3 C       2.5188321 *  1.3285830 *  0.0000000    2.8489211 *  2.8489211 *
   4 H       1.0977458 *  2.1504101 *  2.8489211 *  0.0000000    1.7427307 *
   5 H       1.0977458 *  2.1504101 *  2.8489211 *  1.7427307 *  0.0000000  
   6 H       1.0883830 *  2.1760286 *  3.4121867    1.7756382 *  1.7756382 *
   7 H       2.2055694 *  1.0899917 *  2.0877896 *  2.9429930 *  2.9429930 *
   8 H       2.7627903 *  2.0993697 *  1.0894608 *  2.8241207 *  2.8241207 *
   9 H       3.5192106    2.1320754 *  1.0839281 *  3.8757775    3.8757775  

                6 H          7 H          8 H          9 H     

   1 C       1.0883830 *  2.2055694 *  2.7627903 *  3.5192106  
   2 C       2.1760286 *  1.0899917 *  2.0993697 *  2.1320754 *
   3 C       3.4121867    2.0877896 *  1.0894608 *  1.0839281 *
   4 H       1.7756382 *  2.9429930 *  2.8241207 *  3.8757775  
   5 H       1.7756382 *  2.9429930 *  2.8241207 *  3.8757775  
   6 H       0.0000000    2.4023227 *  3.8120755    4.3072860  
   7 H       2.4023227 *  0.0000000    3.0619630    2.4624559 *
   8 H       3.8120755    3.0619630    0.0000000    1.8425060 *
   9 H       4.3072860    2.4624559 *  1.8425060 *  0.0000000  

  * ... LESS THAN  3.000

 ...... END OF ONE-ELECTRON INTEGRALS ......
 STEP CPU TIME =     0.00 TOTAL CPU TIME =          5.5 (      0.1 MIN)
 TOTAL WALL CLOCK TIME=          5.7 SECONDS, CPU UTILIZATION IS    97.19%
  ...... END OF TWO-ELECTRON INTEGRALS .....
 STEP CPU TIME =     0.01 TOTAL CPU TIME =          5.5 (      0.1 MIN)
 TOTAL WALL CLOCK TIME=          5.7 SECONDS, CPU UTILIZATION IS    97.19%

          --------------------------
             R-B3LYP SCF CALCULATION
          --------------------------
         DENSITY MATRIX CONVERGENCE THRESHOLD=  1.00E-04
     COARSE -> FINE DFT GRID SWITCH THRESHOLD=  1.50E-03 (SWITCH IN $DFT)
                   HF -> DFT SWITCH THRESHOLD=  5.00E-03 (SWOFF IN $DFT)

 DIRECT SCF CALCULATION, SCHWRZ=T   FDIFF=T,  DIRTHR=  0.00E+00 NITDIR=10

 DFT CODE IS SWITCHING FROM THE FINE GRID NRAD= 96,  NLEB=  590
                      TO THE COARSE GRID NRAD0= 24, NLEB0=  110

                                                                                   NONZERO     BLOCKS
 ITER EX DEM     TOTAL ENERGY        E CHANGE  DENSITY CHANGE    DIIS ERROR      INTEGRALS    SKIPPED
          * * *   INITIATING DIIS PROCEDURE   * * *
   1  0  0     -117.1754472865  -117.1754472865   0.011012033   0.013986098         165616       1707
   2  1  0     -117.1759587420    -0.0005114555   0.005555481   0.003671862         163471       2458
   3  2  0     -117.1759304466     0.0000282954   0.003561685   0.006529747         162132       2902
   4  3  0     -117.1759862821    -0.0000558355   0.000715561   0.000952581         161505       3075
 DFT CODE IS SWITCHING BACK TO THE FINE GRID
          * * *   INITIATING DIIS PROCEDURE   * * *
   5  4  0     -117.1762004294    -0.0002141473   0.002935143   0.000782210         165618       1705
   6  5  0     -117.1762042541    -0.0000038247   0.000560468   0.000198516         160908       3112
   7  6  0     -117.1762042792    -0.0000000251   0.000194968   0.000188750         157020       3860
   8  7  0     -117.1762043571    -0.0000000779   0.000017970   0.000012386         154798       4344

          -----------------
          DENSITY CONVERGED
          -----------------
     TIME TO FORM FOCK OPERATORS=       2.7 SECONDS (       0.3 SEC/ITER)
     FOCK TIME ON FIRST ITERATION=       0.0, LAST ITERATION=       0.6
     TIME TO SOLVE SCF EQUATIONS=       0.0 SECONDS (       0.0 SEC/ITER)

 FINAL R-B3LYP ENERGY IS     -117.1762043571 AFTER   8 ITERATIONS
 DFT EXCHANGE + CORRELATION ENERGY =       -14.8284321162
 TOTAL ELECTRON NUMBER             =        24.0000114387
 ...... END OF RHF CALCULATION ......
 STEP CPU TIME =     2.83 TOTAL CPU TIME =          8.4 (      0.1 MIN)
 TOTAL WALL CLOCK TIME=          8.6 SECONDS, CPU UTILIZATION IS    97.67%
 ..... END OF 1-ELECTRON GRADIENT ......
 STEP CPU TIME =     0.00 TOTAL CPU TIME =          8.4 (      0.1 MIN)
 TOTAL WALL CLOCK TIME=          8.6 SECONDS, CPU UTILIZATION IS    97.55%
 MEMORY FOR GRID POINT CONTRIBUTIONS TO THE DFT GRADIENT=    584845 WORDS.
 STEP CPU TIME =     1.22 TOTAL CPU TIME =          9.6 (      0.2 MIN)
 TOTAL WALL CLOCK TIME=          9.8 SECONDS, CPU UTILIZATION IS    97.86%
 ...... END OF 2-ELECTRON GRADIENT ......
 STEP CPU TIME =     0.02 TOTAL CPU TIME =          9.6 (      0.2 MIN)
 TOTAL WALL CLOCK TIME=          9.8 SECONDS, CPU UTILIZATION IS    97.86%

          NSERCH=  1     ENERGY=    -117.1762044

                                 -----------------------
                                 GRADIENT (HARTREE/BOHR)
                                 -----------------------
        ATOM     ZNUC       DE/DX         DE/DY         DE/DZ
 --------------------------------------------------------------
    1  C            6.0    -0.0135582     0.0068376     0.0000000
    2  C            6.0     0.0140158    -0.0043558     0.0000000
    3  C            6.0    -0.0076766     0.0045876     0.0000000
    4  H            1.0     0.0010423    -0.0024410    -0.0022744
    5  H            1.0     0.0010423    -0.0024410     0.0022744
    6  H            1.0     0.0020123    -0.0022726     0.0000000
    7  H            1.0     0.0003450     0.0009745     0.0000000
    8  H            1.0     0.0010877     0.0012708     0.0000000
    9  H            1.0     0.0016893    -0.0021599     0.0000000

          MAXIMUM GRADIENT = 0.0140158    RMS GRADIENT = 0.0045987

 NSERCH:   1  E=     -117.1762043571  GRAD. MAX=  0.0140158  R.M.S.=  0.0045987

          HESSIAN UPDATED USING THE BFGS FORMULA
             ACTUAL ENERGY CHANGE WAS  -0.0002289551
          PREDICTED ENERGY CHANGE WAS  -0.0008896716 RATIO=  0.257
          MIN SEARCH, CORRECT HESSIAN, TRYING PURE NR STEP
               NR STEP HAS LENGTH         =   0.080326
          RADIUS OF STEP TAKEN=   0.08033  CURRENT TRUST RADIUS=   0.14228

 BEGINNING GEOMETRY SEARCH POINT NSERCH=   2 ...

 COORDINATES OF SYMMETRY UNIQUE ATOMS (ANGS)
   ATOM   CHARGE       X              Y              Z
 ------------------------------------------------------------
 C           6.0   0.8341705514   0.9539870505   0.0000000000
 C           6.0  -0.4478569446   0.1489281495   0.0000000000
 C           6.0  -0.4961655141  -1.1783186264   0.0000000000
 H           1.0   1.4376745993   0.7296481811  -0.8865366002
 H           1.0   0.6333093456   2.0301805832   0.0000000000
 H           1.0  -1.3743336548   0.7205956272   0.0000000000
 H           1.0   0.4104241821  -1.7800422373   0.0000000000
 H           1.0  -1.4348971642  -1.7246269091   0.0000000000
 COORDINATES OF ALL ATOMS ARE (ANGS)
   ATOM   CHARGE       X              Y              Z
 ------------------------------------------------------------
 C           6.0   0.8341705514   0.9539870505   0.0000000000
 C           6.0  -0.4478569446   0.1489281495   0.0000000000
 C           6.0  -0.4961655141  -1.1783186264   0.0000000000
 H           1.0   1.4376745993   0.7296481811   0.8865366002
 H           1.0   1.4376745993   0.7296481811  -0.8865366002
 H           1.0   0.6333093456   2.0301805832   0.0000000000
 H           1.0  -1.3743336548   0.7205956272   0.0000000000
 H           1.0   0.4104241821  -1.7800422373   0.0000000000
 H           1.0  -1.4348971642  -1.7246269091   0.0000000000

          INTERNUCLEAR DISTANCES (ANGS.)
          ------------------------------

                1 C          2 C          3 C          4 H          5 H     

   1 C       0.0000000    1.5138409 *  2.5132691 *  1.0956698 *  1.0956698 *
   2 C       1.5138409 *  0.0000000    1.3281256 *  2.1629637 *  2.1629637 *
   3 C       2.5132691 *  1.3281256 *  0.0000000    2.8576252 *  2.8576252 *
   4 H       1.0956698 *  2.1629637 *  2.8576252 *  0.0000000    1.7730732 *
   5 H       1.0956698 *  2.1629637 *  2.8576252 *  1.7730732 *  0.0000000  
   6 H       1.0947775 *  2.1697998 *  3.4014968    1.7675789 *  1.7675789 *
   7 H       2.2208022 *  1.0886518 *  2.0921412 *  2.9484605 *  2.9484605 *
   8 H       2.7666726 *  2.1112966 *  1.0881067 *  2.8530224 *  2.8530224 *
   9 H       3.5105044    2.1176536 *  1.0861261 *  3.8808610    3.8808610  

                6 H          7 H          8 H          9 H     

   1 C       1.0947775 *  2.2208022 *  2.7666726 *  3.5105044  
   2 C       2.1697998 *  1.0886518 *  2.1112966 *  2.1176536 *
   3 C       3.4014968    2.0921412 *  1.0881067 *  1.0861261 *
   4 H       1.7675789 *  2.9484605 *  2.8530224 *  3.8808610  
   5 H       1.7675789 *  2.9484605 *  2.8530224 *  3.8808610  
   6 H       0.0000000    2.3970071 *  3.8167363    4.2867304  
   7 H       2.3970071 *  0.0000000    3.0722224    2.4459724 *
   8 H       3.8167363    3.0722224    0.0000000    1.8461532 *
   9 H       4.2867304    2.4459724 *  1.8461532 *  0.0000000  

  * ... LESS THAN  3.000

 ...... END OF ONE-ELECTRON INTEGRALS ......
 STEP CPU TIME =     0.00 TOTAL CPU TIME =          9.6 (      0.2 MIN)
 TOTAL WALL CLOCK TIME=          9.8 SECONDS, CPU UTILIZATION IS    97.76%
  ...... END OF TWO-ELECTRON INTEGRALS .....
 STEP CPU TIME =     0.00 TOTAL CPU TIME =          9.6 (      0.2 MIN)
 TOTAL WALL CLOCK TIME=          9.8 SECONDS, CPU UTILIZATION IS    97.66%

          --------------------------
             R-B3LYP SCF CALCULATION
          --------------------------
         DENSITY MATRIX CONVERGENCE THRESHOLD=  2.00E-05
     COARSE -> FINE DFT GRID SWITCH THRESHOLD=  3.00E-04 (SWITCH IN $DFT)
                   HF -> DFT SWITCH THRESHOLD=  5.00E-03 (SWOFF IN $DFT)

 DIRECT SCF CALCULATION, SCHWRZ=T   FDIFF=T,  DIRTHR=  0.00E+00 NITDIR=10

 DFT CODE IS SWITCHING FROM THE FINE GRID NRAD= 96,  NLEB=  590
                      TO THE COARSE GRID NRAD0= 24, NLEB0=  110

                                                                                   NONZERO     BLOCKS
 ITER EX DEM     TOTAL ENERGY        E CHANGE  DENSITY CHANGE    DIIS ERROR      INTEGRALS    SKIPPED
          * * *   INITIATING DIIS PROCEDURE   * * *
   1  0  0     -117.1762696678  -117.1762696678   0.005745017   0.007796074         165566       1725
   2  1  0     -117.1764806713    -0.0002110035   0.001980005   0.001393094         163088       2580
   3  2  0     -117.1764812224    -0.0000005511   0.001258002   0.001331315         160658       3185
   4  3  0     -117.1764843198    -0.0000030973   0.000206683   0.000187918         158816       3477
 DFT CODE IS SWITCHING BACK TO THE FINE GRID
          * * *   INITIATING DIIS PROCEDURE   * * *
   5  4  0     -117.1767727367    -0.0002884170   0.002959608   0.000798656         165566       1725
   6  5  0     -117.1767767902    -0.0000040534   0.000744289   0.000258892         160940       3109
   7  6  0     -117.1767766787     0.0000001114   0.000232646   0.000457121         157526       3819
   8  7  0     -117.1767769202    -0.0000002415   0.000050264   0.000048798         155597       4276
   9  8  0     -117.1767769242    -0.0000000040   0.000015830   0.000017068         152684       4852
  10  9  0     -117.1767769249    -0.0000000006   0.000000577   0.000000445         149181       5460

          -----------------
          DENSITY CONVERGED
          -----------------
     TIME TO FORM FOCK OPERATORS=       3.9 SECONDS (       0.4 SEC/ITER)
     FOCK TIME ON FIRST ITERATION=       0.0, LAST ITERATION=       0.6
     TIME TO SOLVE SCF EQUATIONS=       0.0 SECONDS (       0.0 SEC/ITER)

 FINAL R-B3LYP ENERGY IS     -117.1767769249 AFTER  10 ITERATIONS
 DFT EXCHANGE + CORRELATION ENERGY =       -14.8254263875
 TOTAL ELECTRON NUMBER             =        24.0000123989
 ...... END OF RHF CALCULATION ......
 STEP CPU TIME =     4.09 TOTAL CPU TIME =         13.7 (      0.2 MIN)
 TOTAL WALL CLOCK TIME=         14.0 SECONDS, CPU UTILIZATION IS    98.00%
 ..... END OF 1-ELECTRON GRADIENT ......
 STEP CPU TIME =     0.00 TOTAL CPU TIME =         13.7 (      0.2 MIN)
 TOTAL WALL CLOCK TIME=         14.0 SECONDS, CPU UTILIZATION IS    97.93%
 MEMORY FOR GRID POINT CONTRIBUTIONS TO THE DFT GRADIENT=    584845 WORDS.
 STEP CPU TIME =     1.22 TOTAL CPU TIME =         14.9 (      0.2 MIN)
 TOTAL WALL CLOCK TIME=         15.2 SECONDS, CPU UTILIZATION IS    98.09%
 ...... END OF 2-ELECTRON GRADIENT ......
 STEP CPU TIME =     0.01 TOTAL CPU TIME =         14.9 (      0.2 MIN)
 TOTAL WALL CLOCK TIME=         15.2 SECONDS, CPU UTILIZATION IS    98.03%

          NSERCH=  2     ENERGY=    -117.1767769

                                 -----------------------
                                 GRADIENT (HARTREE/BOHR)
                                 -----------------------
        ATOM     ZNUC       DE/DX         DE/DY         DE/DZ
 --------------------------------------------------------------
    1  C            6.0    -0.0024823    -0.0031311     0.0000000
    2  C            6.0     0.0031799    -0.0031768     0.0000000
    3  C            6.0     0.0000252     0.0049636     0.0000000
    4  H            1.0    -0.0009099     0.0004326    -0.0003588
    5  H            1.0    -0.0009099     0.0004326     0.0003588
    6  H            1.0     0.0006366     0.0003247     0.0000000
    7  H            1.0     0.0002813     0.0006621     0.0000000
    8  H            1.0     0.0003340     0.0001624     0.0000000
    9  H            1.0    -0.0001550    -0.0006702     0.0000000

          MAXIMUM GRADIENT = 0.0049636    RMS GRADIENT = 0.0015484

 NSERCH:   2  E=     -117.1767769249  GRAD. MAX=  0.0049636  R.M.S.=  0.0015484

          HESSIAN UPDATED USING THE BFGS FORMULA
             ACTUAL ENERGY CHANGE WAS  -0.0005725677
          PREDICTED ENERGY CHANGE WAS  -0.0005472272 RATIO=  1.046
          MIN SEARCH, CORRECT HESSIAN, TRYING PURE NR STEP
               NR STEP HAS LENGTH         =   0.041600
          RADIUS OF STEP TAKEN=   0.04160  CURRENT TRUST RADIUS=   0.16065

 BEGINNING GEOMETRY SEARCH POINT NSERCH=   3 ...

 COORDINATES OF SYMMETRY UNIQUE ATOMS (ANGS)
   ATOM   CHARGE       X              Y              Z
 ------------------------------------------------------------
 C           6.0   0.8380039411   0.9581041322   0.0000000000
 C           6.0  -0.4486633170   0.1504970801   0.0000000000
 C           6.0  -0.4939842088  -1.1805606900   0.0000000000
 H           1.0   1.4453392571   0.7286952951  -0.8837131731
 H           1.0   0.6229729034   2.0311911995   0.0000000000
 H           1.0  -1.3793981310   0.7136113372   0.0000000000
 H           1.0   0.4095247335  -1.7846768825   0.0000000000
 H           1.0  -1.4391344354  -1.7155567668   0.0000000000
 COORDINATES OF ALL ATOMS ARE (ANGS)
   ATOM   CHARGE       X              Y              Z
 ------------------------------------------------------------
 C           6.0   0.8380039411   0.9581041322   0.0000000000
 C           6.0  -0.4486633170   0.1504970801   0.0000000000
 C           6.0  -0.4939842088  -1.1805606900   0.0000000000
 H           1.0   1.4453392571   0.7286952951   0.8837131731
 H           1.0   1.4453392571   0.7286952951  -0.8837131731
 H           1.0   0.6229729034   2.0311911995   0.0000000000
 H           1.0  -1.3793981310   0.7136113372   0.0000000000
 H           1.0   0.4095247335  -1.7846768825   0.0000000000
 H           1.0  -1.4391344354  -1.7155567668   0.0000000000

          INTERNUCLEAR DISTANCES (ANGS.)
          ------------------------------

                1 C          2 C          3 C          4 H          5 H     

   1 C       0.0000000    1.5191253 *  2.5195396 *  1.0965553 *  1.0965553 *
   2 C       1.5191253 *  0.0000000    1.3318291 *  2.1685267 *  2.1685267 *
   3 C       2.5195396 *  1.3318291 *  0.0000000    2.8613254 *  2.8613254 *
   4 H       1.0965553 *  2.1685267 *  2.8613254 *  0.0000000    1.7674263 *
   5 H       1.0965553 *  2.1685267 *  2.8613254 *  1.7674263 *  0.0000000  
   6 H       1.0944196 *  2.1645818 *  3.4004328    1.7758747 *  1.7758747 *
   7 H       2.2308404 *  1.0878258 *  2.0908959 *  2.9597834 *  2.9597834 *
   8 H       2.7760479 *  2.1169282 *  1.0868693 *  2.8584787 *  2.8584787 *
   9 H       3.5119541    2.1126263 *  1.0860616 *  3.8827188    3.8827188  

                6 H          7 H          8 H          9 H     

   1 C       1.0944196 *  2.2308404 *  2.7760479 *  3.5119541  
   2 C       2.1645818 *  1.0878258 *  2.1169282 *  2.1126263 *
   3 C       3.4004328    2.0908959 *  1.0868693 *  1.0860616 *
   4 H       1.7758747 *  2.9597834 *  2.8584787 *  3.8827188  
   5 H       1.7758747 *  2.9597834 *  2.8584787 *  3.8827188  
   6 H       0.0000000    2.3969786 *  3.8218332    4.2767285  
   7 H       2.3969786 *  0.0000000    3.0727332    2.4299025 *
   8 H       3.8218332    3.0727332    0.0000000    1.8499509 *
   9 H       4.2767285    2.4299025 *  1.8499509 *  0.0000000  

  * ... LESS THAN  3.000

 ...... END OF ONE-ELECTRON INTEGRALS ......
 STEP CPU TIME =     0.01 TOTAL CPU TIME =         14.9 (      0.2 MIN)
 TOTAL WALL CLOCK TIME=         15.2 SECONDS, CPU UTILIZATION IS    98.03%
  ...... END OF TWO-ELECTRON INTEGRALS .....
 STEP CPU TIME =     0.00 TOTAL CPU TIME =         14.9 (      0.2 MIN)
 TOTAL WALL CLOCK TIME=         15.2 SECONDS, CPU UTILIZATION IS    97.97%

          --------------------------
             R-B3LYP SCF CALCULATION
          --------------------------
         DENSITY MATRIX CONVERGENCE THRESHOLD=  2.00E-05
     COARSE -> FINE DFT GRID SWITCH THRESHOLD=  3.00E-04 (SWITCH IN $DFT)
[...]
               TOTAL  0.08683405 12.30813500 14.93227952  0.80571843  0.09685632

                            6           7           8           9          10
       FREQUENCY:         0.21        7.01      431.02      599.02      908.86  
        SYMMETRY:         A'          A''         A'          A''         A'  
    REDUCED MASS:      4.71895     1.63085     2.00980     1.30322     2.82271
    IR INTENSITY:      0.00001     0.00072     0.01098     0.40728     0.01205

  1   C            X  0.11488494 -0.00014255  0.01683805 -0.00000013  0.14574198
                   Y -0.08643147 -0.00010027  0.10988990  0.00000232  0.10281980
                   Z  0.00108562  0.14269793  0.00000026  0.01741742  0.00000574
  2   C            X  0.12132081 -0.00013353  0.11772374  0.00000738 -0.12123335
                   Y -0.09662871 -0.00011472 -0.07113700  0.00000119 -0.02975582
                   Z  0.00114317 -0.11779498  0.00000467 -0.13746715 -0.00000273
  3   C            X  0.13191450 -0.00011851 -0.09553323  0.00000056 -0.06990515
                   Y -0.09702714 -0.00011529 -0.07035068  0.00000198 -0.07880372
                   Z  0.00124944 -0.02271435 -0.00000266  0.03767989 -0.00000419
  4   H            X  0.11664130 -0.22330160  0.06593602 -0.18550639  0.12466328
                   Y -0.08156666  0.06966662  0.24965572 -0.14859745  0.07236346
                   Z  0.00111794  0.31308126  0.00195435  0.10878909  0.00564921
  5   H            X  0.11667239  0.22302137  0.06593296  0.18551219  0.12463759
                   Y -0.08174328 -0.06985372  0.24962570  0.14861475  0.07234273
                   Z  0.00111944  0.31308118 -0.00194909  0.10878963 -0.00565263
  6   H            X  0.10640333 -0.00015458 -0.22434217 -0.00000611  0.16960830
                   Y -0.08810174 -0.00010263  0.06417881  0.00000145  0.11030407
                   Z  0.00097469  0.00524170 -0.00002155  0.18268124 -0.00001851
  7   H            X  0.11681507 -0.00013992  0.12285754  0.00000783 -0.09143302
                   Y -0.10402852 -0.00012515 -0.05394012  0.00000198  0.02675375
                   Z  0.00109326 -0.39966525 -0.00000049  0.31231403 -0.00000024
  8   H            X  0.13676145 -0.00011161 -0.25754016 -0.00000544  0.10873501
                   Y -0.08984180 -0.00010505 -0.30627709 -0.00000670  0.17500817
                   Z  0.00130264  0.25549062  0.00000001 -0.33660947 -0.00000343
  9   H            X  0.13619679 -0.00011243 -0.23759341 -0.00000491  0.10442851
                   Y -0.10454813 -0.00012592  0.17271188  0.00001154 -0.38833253
                   Z  0.00128793 -0.21911422 -0.00001048  0.60483805  0.00003945

 TRANS. SAYVETZ    X  5.15264155 -0.00554010 -0.00004311  0.00009089  0.00011192
                   Y -3.91518039 -0.00461417 -0.00027665  0.00009152  0.00009827
                   Z  0.04868860  0.29647644 -0.00000010  0.00003928 -0.00000018
               TOTAL  6.47153173  0.29656410  0.00027999  0.00013484  0.00014894

   ROT. SAYVETZ    X -0.00620363  3.28770299 -0.00000052  0.01212231 -0.00000102
                   Y  0.00271577 -8.49690081 -0.00000108 -0.00721696  0.00000089
                   Z  0.94071034  0.00133071  0.02432960 -0.00001963 -0.00348407
               TOTAL  0.94073472  9.11078022  0.02432960  0.01410799  0.00348407

                           11          12          13          14          15
       FREQUENCY:       962.68     1008.99     1036.68     1089.97     1206.32  
        SYMMETRY:         A''         A'          A''         A''         A'  
    REDUCED MASS:      1.32446     1.20520     1.05314     1.48847     1.68364
    IR INTENSITY:      1.04420     0.01767     0.50539     0.01410     0.15055

  1   C            X -0.00000519 -0.01030206  0.00000331  0.00000387 -0.09400771
                   Y -0.00000270  0.09663412  0.00000706  0.00000647  0.05847564
                   Z  0.02033968  0.00000417 -0.04218609 -0.12035704  0.00000075
  2   C            X  0.00000289 -0.03303315 -0.00000301 -0.00000210  0.12933060
                   Y  0.00000074  0.00084793 -0.00000025 -0.00000010 -0.00786420
                   Z  0.03037944 -0.00000158 -0.04606178  0.11860334 -0.00000050
  3   C            X  0.00000305  0.05512065  0.00000032 -0.00000105 -0.08156589
                   Y  0.00000205 -0.03638601 -0.00000323 -0.00000302 -0.02861619
                   Z -0.14287071  0.00000229  0.00358734 -0.02870812  0.00000006
  4   H            X  0.08443492 -0.08835778 -0.14431604 -0.43731317 -0.10721087
                   Y  0.04430681 -0.28449869 -0.07594918 -0.19769581 -0.24450011
                   Z -0.02655497 -0.03967195  0.04577257  0.14246277 -0.06181971
  5   H            X -0.08444764 -0.08838262  0.14431906  0.43732281 -0.10721788
                   Y -0.04432176 -0.28451269  0.07593526  0.19769394 -0.24450325
                   Z -0.02655412  0.03966511  0.04577658  0.14246696  0.06181727
  6   H            X -0.00000014  0.51367937  0.00002644  0.00002177  0.27337129
                   Y -0.00000205  0.19094618  0.00001158  0.00001031  0.11896545
                   Z -0.04288109 -0.00001082  0.08094867  0.26169612 -0.00000059
  7   H            X -0.00000027 -0.19441715 -0.00000814 -0.00000416  0.26139146
                   Y -0.00000468 -0.25993896 -0.00000831 -0.00000310  0.20407462
                   Z  0.00018911 -0.00001862  0.70668428 -0.26363516 -0.00000093
  8   H            X -0.00000550 -0.16110356 -0.00000371 -0.00000055  0.12251584
                   Y -0.00001010 -0.34778798 -0.00000917 -0.00000255  0.24969795
                   Z  0.58840970 -0.00002999  0.49686790  0.03582679 -0.00000023
  9   H            X -0.00000497 -0.12181705 -0.00000207  0.00000063  0.10778645
                   Y  0.00001605  0.25835364  0.00000023 -0.00000646 -0.34555112
                   Z  0.60466105  0.00000805 -0.36798985  0.04389902  0.00000046

 TRANS. SAYVETZ    X -0.00001477 -0.00007210  0.00002312  0.00003620  0.00002899
                   Y -0.00001485  0.00002173  0.00002321  0.00003648  0.00007776
                   Z  0.00003671 -0.00000008  0.00002185  0.00001288  0.00000008
               TOTAL  0.00004226  0.00007531  0.00003938  0.00005298  0.00008299

   ROT. SAYVETZ    X  0.00012726 -0.00000062  0.00213828  0.00255995  0.00000004
                   Y -0.00158250  0.00000050  0.00006306 -0.00205279 -0.00000042
                   Z  0.00000353 -0.00529467 -0.00000557 -0.00000841 -0.00188317
               TOTAL  0.00158761  0.00529467  0.00213921  0.00328136  0.00188317

                           16          17          18          19          20
       FREQUENCY:      1376.89     1460.54     1501.96     1556.22     1565.41  
        SYMMETRY:         A'          A'          A'          A'          A'' 
    REDUCED MASS:      1.24544     1.17432     1.20882     1.05132     1.04318
    IR INTENSITY:      0.00568     0.12237     0.02993     0.17607     0.15916

  1   C            X -0.01852593 -0.10035030  0.00573946  0.00986093  0.00000206
                   Y  0.00067637 -0.05275971  0.03137947 -0.05135162  0.00000426
                   Z  0.00000011  0.00000024  0.00000009 -0.00000227 -0.05277019
  2   C            X -0.07113432 -0.00214931 -0.04118340  0.01714329 -0.00000113
                   Y  0.04064909  0.00162218 -0.10880700  0.00188075 -0.00000052
                   Z -0.00000009 -0.00000071  0.00000019 -0.00000088 -0.01717173
  3   C            X  0.06740662 -0.00328661  0.01616085 -0.00726215  0.00000037
                   Y -0.07587374 -0.00516819 -0.01768715 -0.02606103  0.00000087
                   Z  0.00000001  0.00000006 -0.00000002  0.00000009  0.00196042
  4   H            X  0.00018172  0.40634534  0.02361372 -0.35739050  0.06955092
                   Y  0.02911014  0.28950612 -0.06967709  0.34636514  0.47404695
                   Z -0.00541457 -0.23056580 -0.03461255  0.33755871  0.05198245
  5   H            X  0.00018009  0.40633304  0.02361674 -0.35739911 -0.06952719
                   Y  0.02910908  0.28949113 -0.06967148  0.34632101 -0.47408668
                   Z  0.00541405  0.23056315  0.03461285 -0.33755483  0.05200733
  6   H            X  0.03044286  0.47218619  0.00310421  0.44977163 -0.00002663
                   Y  0.01478176  0.07460241  0.02698770  0.06481245 -0.00000275
                   Z  0.00000049  0.00000915 -0.00000380  0.00003232  0.70057352
  7   H            X  0.34179738 -0.02985146  0.16521954  0.01786253 -0.00000042
                   Y  0.71799726 -0.04643656  0.21632140  0.00212363  0.00000075
                   Z -0.00000037 -0.00000257  0.00000059 -0.00000054  0.00282827
  8   H            X -0.12385553  0.02218860  0.31398588  0.06593166 -0.00000135
                   Y -0.36682507  0.03935802  0.45711587  0.08289187 -0.00000165
                   Z  0.00000004  0.00000079 -0.00000019 -0.00000010 -0.00768412
  9   H            X  0.01627930 -0.01777237 -0.29975656 -0.05381952  0.00000081
                   Y -0.01279840  0.02373078  0.57155782  0.05684991  0.00000011
                   Z  0.00000002  0.00000034 -0.00000009  0.00000047  0.00974123

 TRANS. SAYVETZ    X  0.00005608 -0.00015028  0.00018451  0.00002224  0.00001164
                   Y  0.00001431 -0.00017201  0.00012094  0.00001875  0.00001174
                   Z  0.00000001  0.00000021  0.00000000 -0.00000039  0.00000474
               TOTAL  0.00005788  0.00022842  0.00022062  0.00002909  0.00001719

   ROT. SAYVETZ    X  0.00000060  0.00000040 -0.00000003 -0.00000071 -0.00175161
                   Y -0.00000024 -0.00000043  0.00000011  0.00000055  0.00237301
                   Z  0.00089511  0.00300545 -0.00114352 -0.00036110 -0.00000215
               TOTAL  0.00089511  0.00300545  0.00114352  0.00036110  0.00294946

                           21          22          23          24          25
       FREQUENCY:      1716.75     3046.38     3094.51     3118.10     3143.48  
        SYMMETRY:         A'          A'          A''         A'          A'  
    REDUCED MASS:      3.87724     1.03518     1.09873     1.09621     1.06003
    IR INTENSITY:      0.15140     0.38234     0.43313     0.30292     0.32061

  1   C            X -0.00283956 -0.04775214  0.00000060  0.03638415 -0.00604049
                   Y -0.01628508 -0.01105239 -0.00000012 -0.07476974  0.01036737
                   Z  0.00000012 -0.00000031 -0.08675267  0.00000046 -0.00000004
  2   C            X  0.03356850 -0.00036412 -0.00000007 -0.01655568 -0.01769654
                   Y  0.18625581  0.00051366  0.00000002  0.01146848  0.00369133
                   Z -0.00000001 -0.00000002 -0.00066109 -0.00000001  0.00000000
  3   C            X -0.01154318  0.00024674  0.00000000  0.00147747 -0.00579393
                   Y -0.17635775 -0.00095767  0.00000001  0.00363170  0.06305322
                   Z  0.00000000  0.00000001  0.00039601  0.00000000 -0.00000000
  4   H            X  0.02638565  0.33122358  0.37655759 -0.13767036  0.02689909
                   Y -0.02819487 -0.13785120 -0.15113697  0.03762305 -0.00648300
                   Z -0.02138023  0.51629742  0.53504031 -0.22645439  0.04076854
  5   H            X  0.02638499  0.33121991 -0.37656172 -0.13766706  0.02689884
                   Y -0.02819388 -0.13784970  0.15113839  0.03762173 -0.00648289
                   Z  0.02137985 -0.51629326  0.53504674  0.22644903 -0.04076813
  6   H            X -0.13894323 -0.09610652 -0.00000049 -0.16764206  0.02310759
                   Y -0.04593890  0.40417711  0.00000247  0.81616174 -0.10671715
                   Z -0.00000076 -0.00000024 -0.02766851  0.00000004 -0.00000000
  7   H            X -0.16346091  0.00521846  0.00000072  0.21114845  0.20062554
                   Y -0.09083912 -0.00366105 -0.00000046 -0.13241646 -0.12336297
                   Z -0.00000022 -0.00000022 -0.00450618 -0.00000010  0.00000001
  8   H            X  0.22709662 -0.01416433  0.00000005  0.03257587  0.59819280
                   Y  0.14107325  0.00727859 -0.00000001 -0.01920942 -0.39287632
                   Z  0.00000009  0.00000010 -0.00282843  0.00000009 -0.00000000
  9   H            X -0.20588645  0.01259024 -0.00000014 -0.05445122 -0.52419821
                   Y  0.12822623  0.00478143 -0.00000007 -0.02935539 -0.28226875
                   Z -0.00000000 -0.00000003  0.00102166 -0.00000003  0.00000001

 TRANS. SAYVETZ    X  0.00001828  0.00000720  0.00000233 -0.00002047 -0.00009516
                   Y  0.00008430 -0.00001065  0.00000230 -0.00005044 -0.00003284
                   Z  0.00000008 -0.00000002  0.00000017 -0.00000002  0.00000000
               TOTAL  0.00008626  0.00001285  0.00000328  0.00005444  0.00010066

   ROT. SAYVETZ    X  0.00000015  0.00000003 -0.00050494  0.00000002  0.00000000
                   Y  0.00000003  0.00000004  0.00042939 -0.00000003  0.00000004
                   Z -0.00032386  0.00038757 -0.00000056 -0.00041139  0.00006101
               TOTAL  0.00032386  0.00038757  0.00066283  0.00041139  0.00006101

                           26          27
       FREQUENCY:      3155.12     3224.09  
        SYMMETRY:         A'          A'  
    REDUCED MASS:      1.09208     1.11313
    IR INTENSITY:      0.25865     0.49536

  1   C            X -0.00745434  0.00009413
                   Y  0.01861649  0.00194981
                   Z -0.00000003 -0.00000000
  2   C            X -0.06180282 -0.01444171
                   Y  0.04454789  0.00966328
                   Z  0.00000000  0.00000000
  3   C            X  0.01889957 -0.09083762
                   Y -0.02134336 -0.00703262
                   Z  0.00000000 -0.00000000
  4   H            X  0.02975500  0.00364587
                   Y -0.00753914  0.00156961
                   Z  0.04875534  0.00419910
  5   H            X  0.02975492  0.00364587
                   Y -0.00753911  0.00156962
                   Z -0.04875499 -0.00419907
  6   H            X  0.03707809  0.00310982
                   Y -0.20274174 -0.01974133
                   Z  0.00000000  0.00000000
  7   H            X  0.74250765  0.14950268
                   Y -0.45940025 -0.09486867
                   Z  0.00000001  0.00000001
  8   H            X -0.25846961  0.44947252
                   Y  0.17313419 -0.31846482
                   Z -0.00000001 -0.00000000
  9   H            X  0.01894273  0.64306352
                   Y  0.00612136  0.37545183
                   Z  0.00000000 -0.00000000

 TRANS. SAYVETZ    X -0.00003075  0.00001824
                   Y -0.00000895  0.00005553
                   Z  0.00000001  0.00000000
               TOTAL  0.00003203  0.00005845

   ROT. SAYVETZ    X -0.00000008  0.00000003
                   Y -0.00000011 -0.00000001
                   Z -0.00001181 -0.00000484
               TOTAL  0.00001181  0.00000484

 REFERENCE ON SAYVETZ CONDITIONS - A. SAYVETZ, J.CHEM.PHYS., 7, 383-389(1939).

 NOTE - THE MODES J,K ARE ORTHONORMALIZED ACCORDING TO
 SUM ON I   M(I) * (X(I,J)*X(I,K) + Y(I,J)*Y(I,K) + Z(I,J)*Z(I,K)) = DELTA(J,K)

  MODE FREQ(CM**-1)  SYMMETRY  RED. MASS  IR INTENS.
     1     207.392    A''      1.097842    0.015612
     2       4.964    A''      2.232502    0.001150
     3       3.454    A'       2.586767    0.001694
     4       0.256    A''      4.734680    0.000007
     5       0.081    A'       4.671852    0.000002
     6       0.214    A'       4.718947    0.000010
     7       7.011    A''      1.630854    0.000716
     8     431.020    A'       2.009799    0.010976
     9     599.019    A''      1.303215    0.407284
    10     908.865    A'       2.822706    0.012049
    11     962.677    A''      1.324456    1.044198
    12    1008.986    A'       1.205195    0.017671
    13    1036.676    A''      1.053137    0.505394
    14    1089.972    A''      1.488474    0.014103
    15    1206.322    A'       1.683640    0.150553
    16    1376.894    A'       1.245438    0.005680
    17    1460.536    A'       1.174324    0.122368
    18    1501.960    A'       1.208822    0.029928
    19    1556.222    A'       1.051318    0.176067
    20    1565.414    A''      1.043182    0.159161
    21    1716.751    A'       3.877237    0.151397
    22    3046.377    A'       1.035177    0.382344
    23    3094.507    A''      1.098727    0.433128
    24    3118.097    A'       1.096214    0.302923
    25    3143.482    A'       1.060026    0.320609
    26    3155.120    A'       1.092083    0.258651
    27    3224.094    A'       1.113134    0.495361

     -------------------------------
     THERMOCHEMISTRY AT T=  298.15 K
     -------------------------------

 USING IDEAL GAS, RIGID ROTOR, HARMONIC NORMAL MODE APPROXIMATIONS.
 P=  1.01325E+05 PASCAL.
 ALL FREQUENCIES ARE SCALED BY   1.00000
 THE MOMENTS OF INERTIA ARE (IN AMU*BOHR**2)
             39.18440           195.97769           223.85934
 THE ROTATIONAL SYMMETRY NUMBER IS  1.0
 THE ROTATIONAL CONSTANTS ARE (IN GHZ)
     46.01546     9.20048     8.05456
   1 IMAGINARY FREQUENCY VIBRATION(S) IS(ARE) EXCLUDED
     FROM THE FOLLOWING THERMOCHEMICAL ANALYSIS.
      8 -     27 VIBRATIONAL MODES ARE USED IN THERMOCHEMISTRY.
 THE HARMONIC ZERO POINT ENERGY IS (SCALED BY   1.000)
        0.080198 HARTREE/MOLECULE    17601.495544 CM**-1/MOLECULE 
       50.325252 KCAL/MOL              210.560853 KJ/MOL

               Q               LN Q
 ELEC.     1.00000E+00       0.000000
 TRANS.    1.07166E+07      16.187301
 ROT.      1.48419E+04       9.605208
 VIB.      1.27076E+00       0.239613
 TOT.      2.02119E+11      26.032122

              E         H         G         CV        CP        S
           KJ/MOL    KJ/MOL    KJ/MOL   J/MOL-K   J/MOL-K   J/MOL-K
 ELEC.      0.000     0.000     0.000     0.000     0.000     0.000
 TRANS.     3.718     6.197   -40.127    12.472    20.786   155.374
 ROT.       3.718     3.718   -23.811    12.472    12.472    92.333
 VIB.     212.330   212.330   209.967    20.799    20.799     7.927
 TOTAL    219.767   222.246   146.029    45.742    54.056   255.634
 VIB. THERMAL CORRECTION E(T)-E(0) = H(T)-H(0) =      1769.304 J/MOL

              E         H         G         CV        CP        S
         KCAL/MOL  KCAL/MOL  KCAL/MOL CAL/MOL-K CAL/MOL-K CAL/MOL-K
 ELEC.      0.000     0.000     0.000     0.000     0.000     0.000
 TRANS.     0.889     1.481    -9.591     2.981     4.968    37.135
 ROT.       0.889     0.889    -5.691     2.981     2.981    22.068
 VIB.      50.748    50.748    50.183     4.971     4.971     1.894
 TOTAL     52.526    53.118    34.902    10.933    12.920    61.098
 VIB. THERMAL CORRECTION E(T)-E(0) = H(T)-H(0) =       422.874 CAL/MOL
 ......END OF NORMAL COORDINATE ANALYSIS......
 STEP CPU TIME =     0.00 TOTAL CPU TIME =        316.3 (      5.3 MIN)
 TOTAL WALL CLOCK TIME=        320.3 SECONDS, CPU UTILIZATION IS    98.75%
                656798  WORDS OF DYNAMIC MEMORY USED
 EXECUTION OF GAMESS TERMINATED NORMALLY Sun Oct 30 19:43:07 2022
 DDI: 263640 bytes (0.3 MB / 0 MWords) used by master data server.

 ----------------------------------------
 CPU timing information for all processes
 ========================================
 0: 313.683 + 2.668 = 316.351
 ----------------------------------------
 ddikick.x: exited gracefully.
----- accounting info -----
Files used on the master node chemcompute-node-0.novalocal were:
-rw-r--r--. 1 chemcomp chemcomp      884 Oct 30 19:37 /scratch/141343/483393.F05
-rw-rw-r--. 1 chemcomp chemcomp 70451200 Oct 30 19:43 /scratch/141343/483393.F10
-rw-rw-r--. 1 chemcomp chemcomp  4612720 Oct 30 19:43 /scratch/141343/483393.F22
Sun Oct 30 19:43:10 UTC 2022
0.103u 0.034s 5:23.68 0.0%	0+0k 8+208io 0pf+0w
Finishing Up...
Looking for IR data...
Looking for Raman data...
vibramans not found
Looking for thermodynamics data...
Looking for UV-Vis data...
chemcompute.org
{'UTCtimestamp': '2022-10-30T19:43:11.818364', 'cluster': 'jetstream2', 'clusterJobNumber': '141343', 'status': 'COMPLETE', 'nodeList': 'chemcompute-node-0'}
141343
